/*--------------------------------*- C++ -*----------------------------------*\
| =========                 |                                                 |
| \\      /  F ield         | OpenFOAM: The Open Source CFD Toolbox           |
|  \\    /   O peration     | Version:  v2012                                 |
|   \\  /    A nd           | Website:  www.openfoam.com                      |
|    \\/     M anipulation  |                                                 |
\*---------------------------------------------------------------------------*/
FoamFile
{
    version     2.0;
    format      ascii;
    class       volScalarField;
    location    "1.5";
    object      p;
}
// * * * * * * * * * * * * * * * * * * * * * * * * * * * * * * * * * * * * * //

dimensions      [0 2 -2 0 0 0 0];


internalField   nonuniform List<scalar> 
17600
(
-4.19248e-11
0.000123819
-0.000961921
-0.00113965
-0.000873893
-0.0014078
-0.00185156
-0.00247957
-0.00274485
-0.00366571
-0.00389467
-0.00411481
-0.00448239
-0.00405021
-0.00425564
-0.00335339
-0.0026556
-0.000996918
0.000836631
0.00467128
9.1911e-07
0.000124264
-0.000961397
-0.00114197
-0.000873985
-0.00141017
-0.001851
-0.00248256
-0.0027437
-0.00366993
-0.00389268
-0.00411943
-0.0044788
-0.0040588
-0.0042481
-0.00338204
-0.00264558
-0.00106814
0.000850679
0.00435318
2.76409e-06
0.00012462
-0.000961427
-0.001145
-0.000874014
-0.00141382
-0.00185075
-0.00248741
-0.00274279
-0.00367641
-0.00388938
-0.00412544
-0.00447376
-0.00406802
-0.0042402
-0.00340766
-0.00263539
-0.00113754
0.000848176
0.0039251
5.61548e-06
0.000124668
-0.000962351
-0.00114762
-0.000874185
-0.00141812
-0.00185146
-0.00249329
-0.00274297
-0.00368344
-0.00388594
-0.00413067
-0.00446763
-0.00407763
-0.0042325
-0.0034355
-0.00262729
-0.0012086
0.000815612
0.00350948
9.87125e-06
0.000124308
-0.000964095
-0.00114992
-0.000874641
-0.00142316
-0.00185292
-0.00250005
-0.00274353
-0.00369069
-0.00388209
-0.004135
-0.00446074
-0.00408853
-0.00422445
-0.00346666
-0.00262077
-0.00128439
0.000752442
0.00311611
1.56805e-05
0.000123354
-0.00096661
-0.0011521
-0.000875372
-0.0014289
-0.00185464
-0.00250743
-0.00274379
-0.00369796
-0.00387755
-0.00413871
-0.00445342
-0.00410057
-0.0042163
-0.00350061
-0.00261709
-0.00136521
0.000659614
0.00274657
2.2848e-05
0.000121685
-0.000969748
-0.0011543
-0.000876247
-0.00143513
-0.00185632
-0.00251519
-0.0027436
-0.00370518
-0.00387257
-0.00414204
-0.00444596
-0.00411371
-0.00420858
-0.0035366
-0.00261863
-0.0014502
0.000537964
0.0023964
3.10278e-05
0.000119345
-0.000973289
-0.00115661
-0.000877102
-0.00144176
-0.0018578
-0.00252328
-0.00274307
-0.00371237
-0.00386758
-0.00414506
-0.00443873
-0.00412806
-0.00420181
-0.00357405
-0.00262777
-0.00153747
0.000387968
0.00205925
3.99206e-05
0.000116473
-0.000977055
-0.00115909
-0.000877815
-0.00144876
-0.00185907
-0.00253173
-0.0027424
-0.00371961
-0.00386285
-0.00414774
-0.00443206
-0.00414333
-0.00419677
-0.0036122
-0.00264647
-0.0016265
0.000210693
0.00172891
4.93513e-05
0.000113214
-0.000980943
-0.00116181
-0.000878326
-0.00145613
-0.0018602
-0.00254053
-0.00274175
-0.00372686
-0.00385854
-0.00414996
-0.00442622
-0.00415852
-0.00419445
-0.00365025
-0.00267646
-0.00171775
8.72568e-06
0.00140009
5.92541e-05
0.000109676
-0.000984895
-0.00116482
-0.000878624
-0.00146385
-0.00186124
-0.00254966
-0.00274127
-0.003734
-0.00385484
-0.00415149
-0.00442157
-0.00417321
-0.00419575
-0.00368765
-0.00271905
-0.00181257
-0.000213921
0.00106856
6.96269e-05
0.000105928
-0.000988874
-0.00116814
-0.000878715
-0.00147189
-0.00186228
-0.00255901
-0.0027411
-0.00374085
-0.00385199
-0.00415202
-0.00441866
-0.00418706
-0.00420151
-0.00372426
-0.00277464
-0.00191327
-0.00045256
0.000731509
8.04922e-05
0.000102001
-0.000992845
-0.0011718
-0.000878612
-0.00148019
-0.0018634
-0.00256849
-0.0027414
-0.00374721
-0.00385032
-0.0041512
-0.004418
-0.00419973
-0.00421246
-0.00376076
-0.00284266
-0.00202282
-0.000702712
0.000387852
9.18734e-05
9.79168e-05
-0.000996776
-0.00117584
-0.000878328
-0.0014887
-0.00186465
-0.00257797
-0.00274236
-0.00375281
-0.00385021
-0.00414865
-0.00442003
-0.00421101
-0.00422905
-0.0037985
-0.00292169
-0.00214422
-0.000960967
3.80995e-05
0.000103785
9.36901e-05
-0.00100063
-0.00118025
-0.000877882
-0.00149735
-0.00186614
-0.00258726
-0.00274423
-0.00375732
-0.00385212
-0.00414402
-0.00442507
-0.0042211
-0.00425116
-0.00383953
-0.00300998
-0.00227984
-0.0012255
-0.00031609
0.000116232
8.93454e-05
-0.00100438
-0.00118504
-0.000877305
-0.00150606
-0.00186799
-0.00259618
-0.00274731
-0.00376036
-0.0038565
-0.00413702
-0.00443332
-0.00423056
-0.00427806
-0.00388634
-0.00310617
-0.00243114
-0.00149592
-0.000672507
0.000129204
8.49212e-05
-0.00100798
-0.00119021
-0.000876646
-0.00151474
-0.00187033
-0.0026045
-0.00275189
-0.00376157
-0.00386372
-0.00412757
-0.0044448
-0.0042403
-0.00430845
-0.00394131
-0.00320988
-0.00259842
-0.00177287
-0.00102927
0.00014268
8.04748e-05
-0.00101141
-0.00119572
-0.000875979
-0.00152323
-0.00187337
-0.00261196
-0.0027583
-0.00376065
-0.00387396
-0.00411579
-0.00445927
-0.00425174
-0.00434094
-0.00400624
-0.00332148
-0.0027805
-0.00205778
-0.00138549
0.000156624
7.60894e-05
-0.00101465
-0.00120154
-0.00087541
-0.00153138
-0.00187734
-0.00261829
-0.00276686
-0.00375737
-0.00388722
-0.00410197
-0.00447621
-0.0042665
-0.00437465
-0.00408235
-0.00344189
-0.0029753
-0.00235209
-0.00174122
0.000170982
7.18812e-05
-0.0010177
-0.00120757
-0.000875084
-0.00153898
-0.00188245
-0.00262322
-0.00277785
-0.00375163
-0.00390327
-0.00408682
-0.0044946
-0.00428617
-0.00440955
-0.00417028
-0.0035728
-0.00318064
-0.00265643
-0.00209744
0.000185678
6.80029e-05
-0.00102055
-0.00121374
-0.000875172
-0.00154584
-0.00188894
-0.00262655
-0.0027914
-0.00374356
-0.00392173
-0.00407269
-0.00451069
-0.00431222
-0.00444591
-0.00426982
-0.00371667
-0.0033951
-0.0029704
-0.00245591
0.000200614
6.46438e-05
-0.00102322
-0.0012199
-0.000875864
-0.00155177
-0.00189704
-0.00262817
-0.00280744
-0.00373358
-0.0039418
-0.00405972
-0.00452504
-0.00434572
-0.00448447
-0.0043801
-0.00387614
-0.00361841
-0.00329287
-0.00281889
0.00021567
6.20329e-05
-0.00102578
-0.0012259
-0.000877335
-0.00155662
-0.00190687
-0.00262812
-0.00282567
-0.00372244
-0.00396233
-0.00404887
-0.00453728
-0.00438699
-0.0045264
-0.00449974
-0.00405329
-0.00385139
-0.00362238
-0.00318874
0.000230693
6.04674e-05
-0.0010283
-0.00123161
-0.000879709
-0.00156029
-0.00191851
-0.0026266
-0.00284553
-0.00371097
-0.00398239
-0.00404086
-0.00454729
-0.00443592
-0.00457319
-0.00462732
-0.00424945
-0.00409568
-0.00395742
-0.00356732
0.000245483
6.03266e-05
-0.00103081
-0.00123697
-0.000883079
-0.00156278
-0.00193185
-0.00262409
-0.00286616
-0.0036999
-0.00400143
-0.00403615
-0.00455536
-0.00449227
-0.00462662
-0.0047616
-0.00446481
-0.00435331
-0.00429687
-0.00395556
0.000259806
6.20212e-05
-0.00103334
-0.00124192
-0.00088752
-0.0015642
-0.00194649
-0.00262134
-0.00288667
-0.00368966
-0.00401902
-0.00403477
-0.0045623
-0.00455582
-0.0046888
-0.00490168
-0.00469835
-0.00462602
-0.00464014
-0.00435275
0.000273401
6.60067e-05
-0.00103586
-0.00124649
-0.000892938
-0.00156485
-0.00196183
-0.00261916
-0.00290648
-0.00368038
-0.00403517
-0.00403664
-0.00456888
-0.00462675
-0.00476267
-0.00504785
-0.00494779
-0.00491444
-0.00498623
-0.00475648
0.00028596
7.27658e-05
-0.00103827
-0.00125082
-0.000899049
-0.00156527
-0.0019772
-0.00261808
-0.00292539
-0.00367174
-0.00405024
-0.00404214
-0.00457572
-0.00470641
-0.00485311
-0.00520083
-0.00520885
-0.005218
-0.00533584
-0.00516367
0.000297092
8.27742e-05
-0.00104029
-0.00125515
-0.000905429
-0.00156628
-0.00199187
-0.00261828
-0.00294372
-0.00366296
-0.00406585
-0.00405277
-0.00458444
-0.00479722
-0.00496245
-0.00535894
-0.00547498
-0.0055349
-0.00569093
-0.0055708
0.000306372
9.65386e-05
-0.00104142
-0.00126004
-0.000911407
-0.00156879
-0.00200554
-0.00261962
-0.00296233
-0.00365356
-0.00408249
-0.00407224
-0.00459905
-0.00489922
-0.00509007
-0.00552067
-0.00573975
-0.00586143
-0.00605263
-0.00597753
0.000313452
0.000114477
-0.00104102
-0.00126633
-0.000916256
-0.00157327
-0.00201842
-0.00262146
-0.00298232
-0.00364344
-0.0041013
-0.00410418
-0.00462089
-0.0050062
-0.0052335
-0.00568839
-0.00600035
-0.00619297
-0.00642014
-0.00638239
0.000318094
0.000136755
-0.00103823
-0.00127488
-0.000919586
-0.00158005
-0.0020312
-0.00262296
-0.00300509
-0.00363321
-0.00412325
-0.00414964
-0.00464867
-0.00511138
-0.00538922
-0.00586517
-0.00625814
-0.00652587
-0.00679071
-0.00678314
0.000320075
0.000163358
-0.00103404
-0.0012865
-0.000921297
-0.00158905
-0.00204532
-0.00262353
-0.0030325
-0.0036327
-0.00414715
-0.00420704
-0.00468361
-0.00521112
-0.00555236
-0.00605265
-0.00651646
-0.00685855
-0.0071609
-0.00717762
0.000319179
0.000194039
-0.00102254
-0.0013018
-0.000921621
-0.00159973
-0.00206306
-0.00262317
-0.00306563
-0.00363998
-0.00417438
-0.00427342
-0.00472782
-0.00530574
-0.00571802
-0.00625044
-0.00677855
-0.00719086
-0.00752806
-0.00756361
0.000315366
0.000228005
-0.00100338
-0.00132088
-0.000921181
-0.00161141
-0.00208675
-0.00262275
-0.00310412
-0.00365623
-0.00419412
-0.00434453
-0.00478357
-0.00539821
-0.00588277
-0.00645646
-0.00704608
-0.00752306
-0.00789076
-0.00793916
0.000308787
0.000264121
-0.000976083
-0.00134293
-0.000920993
-0.00162349
-0.00211857
-0.00262372
-0.00314585
-0.00368284
-0.00421091
-0.00441519
-0.00485172
-0.00549255
-0.0060452
-0.00666788
-0.00731829
-0.00785516
-0.00824871
-0.00830315
0.000299693
0.000301342
-0.000939582
-0.00136728
-0.000922494
-0.00163543
-0.00216055
-0.00262715
-0.00318729
-0.00372055
-0.00422653
-0.004481
-0.0049307
-0.00559332
-0.00620612
-0.00688119
-0.00759254
-0.00818676
-0.00860271
-0.00865586
0.000288502
0.000338609
-0.000893321
-0.00139343
-0.000927345
-0.00164642
-0.00221368
-0.00263487
-0.0032247
-0.00376874
-0.00424501
-0.00453973
-0.00501699
-0.00570373
-0.0063679
-0.00709327
-0.00786518
-0.00851694
-0.00895417
-0.00899912
0.000275849
0.000374898
-0.000837741
-0.00142073
-0.00093734
-0.00165501
-0.00227747
-0.00264962
-0.00325501
-0.00382529
-0.00427147
-0.00459171
-0.00510611
-0.00582411
-0.00653344
-0.00730284
-0.00813246
-0.00884359
-0.00930389
-0.00933542
0.000262515
0.000409228
-0.000773697
-0.00144857
-0.000954237
-0.00165987
-0.00235048
-0.00267474
-0.00327686
-0.00388663
-0.00431036
-0.00463979
-0.00519329
-0.00595216
-0.00670513
-0.00751114
-0.0083916
-0.00916307
-0.00965077
-0.00966674
0.000249258
0.00044047
-0.000702724
-0.00147619
-0.000979916
-0.00166016
-0.00242941
-0.00271323
-0.00329097
-0.00394791
-0.00436414
-0.00468848
-0.00527516
-0.00608403
-0.00688397
-0.0077206
-0.00864154
-0.00947092
-0.00999152
-0.00999379
0.000236779
0.000467658
-0.000628159
-0.00150279
-0.00101678
-0.00165579
-0.00250905
-0.00276699
-0.00329984
-0.00400388
-0.00443231
-0.00474322
-0.00535078
-0.00621489
-0.00706896
-0.00793358
-0.00888302
-0.00976319
-0.0103214
-0.0103158
0.000225726
0.000490072
-0.000549462
-0.00152748
-0.00106746
-0.00164777
-0.00258383
-0.00283677
-0.0033078
-0.00405007
-0.00451144
-0.00480918
-0.00542196
-0.00634016
-0.00725727
-0.00815145
-0.00911793
-0.0100375
-0.0106354
-0.0106303
0.000216666
0.000507014
-0.000468004
-0.00154924
-0.0011341
-0.00163826
-0.00264879
-0.00292145
-0.00332048
-0.00408418
-0.00459658
-0.00488944
-0.00549259
-0.00645687
-0.00744451
-0.00837378
-0.00934865
-0.0102936
-0.0109291
-0.0109334
0.000210226
0.000517892
-0.000385828
-0.00156648
-0.0012179
-0.00163146
-0.00269932
-0.00301776
-0.00334334
-0.0041065
-0.00468151
-0.00498373
-0.00556728
-0.00656425
-0.00762547
-0.0085982
-0.00957749
-0.0105335
-0.0111997
-0.0112202
0.000207016
0.000522069
-0.000305306
-0.00157697
-0.0013191
-0.00163315
-0.00273248
-0.00312042
-0.00338084
-0.00411985
-0.00475977
-0.00508927
-0.0056501
-0.00666339
-0.00779517
-0.00882064
-0.00980589
-0.0107607
-0.0114467
-0.0114859
0.000207604
0.000519078
-0.000229381
-0.00157859
-0.00143714
-0.00164998
-0.00274774
-0.0032219
-0.00343493
-0.00412889
-0.00482669
-0.00520187
-0.00574328
-0.00675622
-0.00794954
-0.00903588
-0.0100337
-0.0109787
-0.0116715
-0.0117268
0.000212393
0.00050897
-0.000161856
-0.0015702
-0.00156889
-0.00168836
-0.00274805
-0.00331377
-0.00350411
-0.00413901
-0.00488058
-0.00531591
-0.00584653
-0.00684472
-0.0080859
-0.0092381
-0.0102586
-0.0111909
-0.0118772
-0.0119415
0.000221434
0.000491977
-0.000106936
-0.00155182
-0.00170849
-0.00175247
-0.00273968
-0.00338946
-0.00358388
-0.0041552
-0.00492254
-0.00542576
-0.00595771
-0.00693107
-0.00820338
-0.00942146
-0.0104759
-0.0113981
-0.0120676
-0.0121309
0.000234453
0.000468314
-6.84211e-05
-0.00152425
-0.00184794
-0.00184356
-0.00273091
-0.00344577
-0.00366795
-0.00418022
-0.00495517
-0.00552711
-0.00607387
-0.00701765
-0.00830302
-0.00958095
-0.010679
-0.0115984
-0.0122455
-0.0122973
0.000250229
0.00043835
-4.83373e-05
-0.0014897
-0.00198031
-0.00195992
-0.00273065
-0.00348392
-0.00375007
-0.00421401
-0.00498072
-0.00561633
-0.00619082
-0.00710591
-0.0083872
-0.00971344
-0.0108607
-0.0117871
-0.0124115
-0.0124436
0.000266607
0.000402774
-4.72327e-05
-0.0014518
-0.00209971
-0.00209746
-0.00274665
-0.00350769
-0.00382502
-0.00425415
-0.00500054
-0.00569033
-0.00630315
-0.00719534
-0.00845868
-0.00981836
-0.011015
-0.0119585
-0.0125646
-0.012572
0.000281507
0.000355212
-6.53951e-05
-0.00141629
-0.00220228
-0.00225044
-0.00278401
-0.00352235
-0.00388923
-0.00429718
-0.00501568
-0.00574737
-0.00640494
-0.00728298
-0.00851936
-0.00989673
-0.011138
-0.0121065
-0.0127016
-0.0126833
0.000293141
0.000311852
-0.000102928
-0.0013881
-0.00228607
-0.00241134
-0.00284483
-0.00353457
-0.00394155
-0.00433985
-0.00502689
-0.00578653
-0.00648999
-0.00736337
-0.00856913
-0.00994921
-0.0112266
-0.012225
-0.0128181
-0.0127765
0.000299091
0.000264936
-0.000158585
-0.00137279
-0.00235285
-0.00257143
-0.00292771
-0.00355129
-0.00398283
-0.0043794
-0.00503419
-0.00580739
-0.0065526
-0.00742962
-0.00860507
-0.00997484
-0.0112781
-0.0123076
-0.0129075
-0.0128485
0.000296572
0.000212875
-0.000229879
-0.00137442
-0.00240696
-0.00272339
-0.00302857
-0.00357784
-0.00401564
-0.00441338
-0.00503681
-0.00581028
-0.0065887
-0.00747451
-0.00862219
-0.00997209
-0.0112901
-0.0123473
-0.0129614
-0.0128938
0.0002831
0.000158039
-0.00031453
-0.00139539
-0.00245362
-0.00286332
-0.00314235
-0.00361673
-0.00404305
-0.0044397
-0.00503289
-0.00579538
-0.00659575
-0.00749102
-0.00861406
-0.00993794
-0.0112592
-0.0123393
-0.0129718
-0.0129052
0.000256084
9.65401e-05
-0.000410117
-0.00143697
-0.00249895
-0.0029908
-0.00326364
-0.00366813
-0.0040677
-0.00445687
-0.00501985
-0.00576179
-0.00657169
-0.00747272
-0.00857307
-0.00986696
-0.0111812
-0.0122792
-0.0129324
-0.0128737
0.000213123
2.58527e-05
-0.000515142
-0.00149892
-0.00254861
-0.00310778
-0.00338796
-0.00373093
-0.00409183
-0.0044641
-0.00499465
-0.00570753
-0.00651372
-0.00741357
-0.008491
-0.00975232
-0.0110518
-0.0121616
-0.0128368
-0.0127935
0.000152156
-5.6389e-05
-0.000629806
-0.00158041
-0.00260727
-0.00321718
-0.00351248
-0.00380322
-0.00411704
-0.0044614
-0.00495444
-0.0056297
-0.00641842
-0.00730741
-0.00835916
-0.00958533
-0.0108638
-0.0119789
-0.0126759
-0.0126549
7.11728e-05
-0.000152944
-0.000754688
-0.00168039
-0.00267848
-0.00332259
-0.00363602
-0.00388332
-0.00414449
-0.00444952
-0.0048972
-0.00552522
-0.0062818
-0.00714747
-0.00816748
-0.00935398
-0.0106053
-0.0117188
-0.0124359
-0.0124432
-3.20487e-05
-0.000266515
-0.000890919
-0.00179824
-0.00276475
-0.00342809
-0.00375862
-0.00397027
-0.00417558
-0.00442995
-0.00482212
-0.00539126
-0.00609912
-0.00692569
-0.00790342
-0.00904254
-0.0102588
-0.0113636
-0.0120977
-0.0121397
-0.000159989
-0.000399947
-0.00104022
-0.00193383
-0.00286831
-0.00353763
-0.00388106
-0.00406374
-0.00421215
-0.00440594
-0.00473063
-0.00522592
-0.00586552
-0.00663188
-0.00755095
-0.00862994
-0.0097988
-0.0108869
-0.0116373
-0.0117116
-0.000315639
-0.00055683
-0.00120514
-0.00208695
-0.00299096
-0.00365479
-0.0040055
-0.00416419
-0.00425767
-0.00438289
-0.00462697
-0.00503041
-0.0055772
-0.0062551
-0.00708876
-0.00808658
-0.00918921
-0.010242
-0.0109978
-0.0111135
-0.000501846
-0.000740488
-0.00138894
-0.00225813
-0.00313324
-0.00378362
-0.00413461
-0.0042737
-0.00431707
-0.00436839
-0.00451994
-0.00481256
-0.00523563
-0.00578473
-0.0064877
-0.00736853
-0.00837481
-0.00937187
-0.0101236
-0.0102921
-0.00072162
-0.000954259
-0.00159525
-0.00244994
-0.00329575
-0.00392653
-0.00427174
-0.00439513
-0.00439615
-0.00437195
-0.00442209
-0.00458961
-0.00485725
-0.00521787
-0.00572101
-0.00641207
-0.00726935
-0.00817134
-0.00890889
-0.00915618
-0.000978561
-0.00120171
-0.00182929
-0.00266561
-0.00347995
-0.00408525
-0.00441991
-0.00453136
-0.00450047
-0.00440782
-0.00434797
-0.00437922
-0.0044843
-0.00460324
-0.0047771
-0.00512899
-0.00569569
-0.0064063
-0.00710637
-0.00751052
-0.00126478
-0.00148577
-0.00209728
-0.0029073
-0.00368618
-0.00426137
-0.00458138
-0.0046843
-0.00463291
-0.00449268
-0.00432237
-0.00418607
-0.00412244
-0.00406352
-0.00386918
-0.00351253
-0.00316171
-0.0030557
-0.00329676
-0.00376834
-0.00158556
-0.001811
-0.00240394
-0.00317688
-0.00391251
-0.00445564
-0.00475927
-0.00485709
-0.00479445
-0.00463635
-0.00438987
-0.00405175
-0.00368912
-0.00352248
-0.00362587
-0.00343828
-0.00232854
-0.000420664
0.00146512
0.00270067
-0.00197863
-0.00218229
-0.00274251
-0.00346848
-0.00415546
-0.00466348
-0.00495398
-0.00505086
-0.00497445
-0.00477281
-0.00456065
-0.00424199
-0.0032746
-0.00175298
-0.000182862
0.00119754
0.00245214
0.00366327
0.00468276
0.00512556
-0.00244433
-0.00260929
-0.00311776
-0.00378066
-0.00440861
-0.00487515
-0.00514866
-0.00524206
-0.00516861
-0.00472946
-0.00355889
-0.00204812
-0.000605965
0.000597737
0.00162594
0.00261531
0.00364276
0.00465494
0.0054362
0.00560671
-0.00296584
-0.00310253
-0.00353773
-0.00411099
-0.00466125
-0.00506511
-0.00527266
-0.00517588
-0.00444494
-0.00328288
-0.00201451
-0.00087478
9.44269e-05
0.00105501
0.00211379
0.00327719
0.00447322
0.00555617
0.00629953
0.00637237
-0.00354941
-0.00366996
-0.00400924
-0.00444349
-0.00486023
-0.00510735
-0.0048586
-0.00419932
-0.00332852
-0.00240637
-0.00150543
-0.000576105
0.000444548
0.00157029
0.00279746
0.00409273
0.00536727
0.00647106
0.00717851
0.00715826
-0.00419789
-0.00430962
-0.00450386
-0.00470899
-0.00476113
-0.00453567
-0.00409607
-0.00350593
-0.00283165
-0.00206713
-0.00118991
-0.000186863
0.00093892
0.00216858
0.00347691
0.00482003
0.00611019
0.0071975
0.00785122
0.00773888
-0.00488125
-0.00495494
-0.004888
-0.00470061
-0.00441521
-0.00404784
-0.00361144
-0.00310269
-0.00248431
-0.00172575
-0.000808596
0.000254401
0.00143582
0.00271124
0.00405144
0.00540189
0.006671
0.00771105
0.00829785
0.00810585
-0.0055089
-0.00548899
-0.00514987
-0.00466282
-0.00416562
-0.00370941
-0.00325975
-0.00275443
-0.00213897
-0.00136731
-0.000429515
0.000657995
0.00186582
0.0031612
0.00450462
0.00584053
0.0070793
0.00807691
0.00861312
0.00836566
-0.00603073
-0.00590547
-0.00537068
-0.00467083
-0.00400893
-0.00345441
-0.00295769
-0.00243539
-0.0018123
-0.00103863
-9.70628e-05
0.000998523
0.00221578
0.00351764
0.00486023
0.00618439
0.00739995
0.00836504
0.00886277
0.00857397
-0.00643954
-0.00622769
-0.00556493
-0.00471279
-0.00391282
-0.00325708
-0.00270579
-0.0021604
-0.00152862
-0.000755912
0.000177397
0.00126559
0.00248379
0.00378992
0.0051342
0.00645228
0.00765197
0.0085929
0.00906153
0.00874208
-0.00674609
-0.00648286
-0.00572948
-0.00477119
-0.00386441
-0.00312371
-0.00251747
-0.00194181
-0.00129564
-0.000516682
0.00041891
0.00150674
0.00272173
0.00402466
0.0053647
0.00667436
0.00786002
0.00878215
0.00922929
0.00888772
-0.00693898
-0.00665958
-0.0058637
-0.00484693
-0.00387683
-0.00308192
-0.00243463
-0.00183278
-0.00117179
-0.000381098
0.000570269
0.00167625
0.00290699
0.00421803
0.00555643
0.00685719
0.00803011
0.00893913
0.00937515
0.00902507
0.00866607
0.00366168
-0.00369237
-0.00880503
-0.00983312
-0.00857626
-0.00707161
-0.00601219
-0.00540095
-0.00508699
-0.00493983
-0.00488881
-0.00490886
-0.0049838
-0.00508922
-0.00520279
-0.00531516
-0.00542553
-0.00553339
-0.00563688
-0.00573464
-0.00582656
-0.00591375
-0.00599804
-0.00608122
-0.00616405
-0.00624701
-0.00633087
-0.00641652
-0.00650429
-0.00659417
-0.00668612
-0.00678023
-0.00687636
-0.00697388
-0.00707187
-0.00716974
-0.00726735
-0.00736462
-0.00746104
-0.00755575
-0.007648
-0.00773769
-0.00782514
-0.00791066
-0.00799403
-0.00807485
-0.00815321
-0.00822978
-0.00830534
-0.00838029
-0.00845461
-0.00852825
-0.00860138
-0.00867403
-0.00874598
-0.00881687
-0.0088865
-0.00895488
-0.00902203
-0.009088
-0.00915301
-0.00921765
-0.0092826
-0.00934827
-0.00941468
-0.00948156
-0.00954839
-0.00961483
-0.00968068
-0.0097458
-0.00981015
-0.00987384
-0.00993717
-0.0100005
-0.0100641
-0.0101277
-0.010191
-0.0102537
-0.0103156
-0.0103767
-0.0104374
-0.0104977
-0.0105577
-0.0106176
-0.010678
-0.0107388
-0.0107997
-0.0108601
-0.0109201
-0.0109802
-0.0110409
-0.0111023
-0.0111641
-0.0112257
-0.0112874
-0.0113492
-0.0114114
-0.0114736
-0.0115363
-0.0115994
-0.0116631
-0.0117268
-0.0117906
-0.0118544
-0.0119186
-0.0119832
-0.012048
-0.0121129
-0.012178
-0.012243
-0.012308
-0.0123731
-0.0124383
-0.0125037
-0.0125687
-0.0126333
-0.0126976
-0.0127619
-0.0128263
-0.0128906
-0.0129544
-0.0130172
-0.0130793
-0.0131411
-0.0132031
-0.0132649
-0.0133257
-0.0133851
-0.0134436
-0.0135019
-0.0135605
-0.0136188
-0.013676
-0.0137317
-0.0137867
-0.0138419
-0.0138971
-0.0139517
-0.0140053
-0.0140579
-0.0141092
-0.0141608
-0.0142136
-0.0142661
-0.0143157
-0.0143633
-0.0144135
-0.0144657
-0.0145155
-0.0145606
-0.014608
-0.0146584
-0.0147073
-0.0147519
-0.0147976
-0.0148458
-0.0148926
-0.0149375
-0.0149821
-0.0150286
-0.0150737
-0.0151183
-0.0151625
-0.0152072
-0.0152517
-0.0152954
-0.0153395
-0.0153829
-0.0154271
-0.0154704
-0.0155142
-0.0155578
-0.0156013
-0.0156455
-0.0156886
-0.0157333
-0.0157767
-0.0158212
-0.0158657
-0.0159095
-0.0159555
-0.0159988
-0.0160455
-0.0160892
-0.0161355
-0.0161806
-0.0162259
-0.0162726
-0.0163164
-0.0163643
-0.0164078
-0.0164537
-0.0165
-0.0165401
-0.016587
-0.0166249
-0.0166608
-0.016693
-0.0167201
0.00793588
0.00348625
-0.00361298
-0.00867071
-0.00975361
-0.00853848
-0.00704804
-0.00599561
-0.00538897
-0.00507786
-0.00493242
-0.0048825
-0.00490332
-0.00497886
-0.00508478
-0.00519876
-0.00531149
-0.00542217
-0.00553031
-0.00563405
-0.00573204
-0.00582416
-0.00591152
-0.00599597
-0.00607929
-0.00616225
-0.00624531
-0.00632927
-0.00641501
-0.00650285
-0.00659281
-0.00668481
-0.00677899
-0.00687517
-0.00697274
-0.00707078
-0.00716869
-0.00726634
-0.00736366
-0.00746012
-0.00755486
-0.00764715
-0.00773687
-0.00782436
-0.00790991
-0.00799331
-0.00807416
-0.00815255
-0.00822914
-0.00830473
-0.0083797
-0.00845405
-0.00852771
-0.00860086
-0.00867353
-0.0087455
-0.0088164
-0.00888605
-0.00895444
-0.00902161
-0.00908759
-0.00915261
-0.00921727
-0.00928223
-0.00934791
-0.00941434
-0.00948122
-0.00954806
-0.00961451
-0.00968037
-0.0097455
-0.00980986
-0.00987356
-0.0099369
-0.0100003
-0.0100638
-0.0101274
-0.0101908
-0.0102535
-0.0103153
-0.0103765
-0.0104371
-0.0104974
-0.0105575
-0.0106174
-0.0106778
-0.0107386
-0.0107995
-0.01086
-0.01092
-0.01098
-0.0110408
-0.0111022
-0.0111639
-0.0112255
-0.0112872
-0.011349
-0.0114112
-0.0114735
-0.0115362
-0.0115993
-0.0116629
-0.0117267
-0.0117904
-0.0118543
-0.0119185
-0.0119831
-0.0120479
-0.0121128
-0.0121778
-0.0122429
-0.0123079
-0.012373
-0.0124382
-0.0125036
-0.0125686
-0.0126332
-0.0126975
-0.0127618
-0.0128262
-0.0128905
-0.0129543
-0.0130172
-0.0130792
-0.013141
-0.013203
-0.0132648
-0.0133256
-0.013385
-0.0134435
-0.0135018
-0.0135605
-0.0136188
-0.013676
-0.0137317
-0.0137867
-0.0138419
-0.0138971
-0.0139517
-0.0140052
-0.0140579
-0.0141092
-0.0141607
-0.0142135
-0.0142661
-0.0143157
-0.0143632
-0.0144134
-0.0144656
-0.0145154
-0.0145605
-0.014608
-0.0146584
-0.0147072
-0.0147518
-0.0147975
-0.0148458
-0.0148926
-0.0149374
-0.0149821
-0.0150286
-0.0150737
-0.0151183
-0.0151625
-0.0152072
-0.0152517
-0.0152954
-0.0153395
-0.0153829
-0.0154271
-0.0154704
-0.0155141
-0.0155578
-0.0156013
-0.0156455
-0.0156885
-0.0157332
-0.0157766
-0.0158212
-0.0158657
-0.0159095
-0.0159555
-0.0159988
-0.0160455
-0.0160892
-0.0161355
-0.0161806
-0.0162259
-0.0162726
-0.0163164
-0.0163643
-0.0164078
-0.0164537
-0.0165
-0.0165401
-0.016587
-0.0166249
-0.0166608
-0.016693
-0.0167201
0.00716951
0.00331196
-0.00343882
-0.00841691
-0.0096093
-0.00848077
-0.00701661
-0.00597183
-0.00537061
-0.00506394
-0.00492175
-0.00487409
-0.00489647
-0.0049731
-0.00507977
-0.00519431
-0.00530748
-0.00541854
-0.005527
-0.00563102
-0.00572925
-0.0058216
-0.00590917
-0.0059938
-0.00607728
-0.00616038
-0.00624357
-0.00632764
-0.00641348
-0.00650141
-0.00659144
-0.00668352
-0.00677775
-0.00687399
-0.00697162
-0.00706971
-0.00716767
-0.00726536
-0.00736272
-0.00745922
-0.007554
-0.00764633
-0.00773608
-0.0078236
-0.00790918
-0.0079926
-0.00807348
-0.0081519
-0.00822852
-0.00830413
-0.00837913
-0.0084535
-0.00852718
-0.00860036
-0.00867305
-0.00874503
-0.00881595
-0.00888561
-0.00895401
-0.0090212
-0.00908719
-0.00915223
-0.00921689
-0.00928187
-0.00934756
-0.009414
-0.0094809
-0.00954775
-0.00961421
-0.00968007
-0.00974521
-0.00980958
-0.00987329
-0.00993663
-0.01
-0.0100636
-0.0101272
-0.0101906
-0.0102532
-0.0103151
-0.0103762
-0.0104369
-0.0104972
-0.0105573
-0.0106172
-0.0106776
-0.0107385
-0.0107994
-0.0108598
-0.0109198
-0.0109798
-0.0110406
-0.011102
-0.0111637
-0.0112254
-0.011287
-0.0113489
-0.0114111
-0.0114734
-0.011536
-0.0115991
-0.0116628
-0.0117266
-0.0117903
-0.0118541
-0.0119184
-0.011983
-0.0120478
-0.0121127
-0.0121777
-0.0122428
-0.0123078
-0.0123729
-0.0124382
-0.0125035
-0.0125685
-0.0126332
-0.0126974
-0.0127617
-0.0128261
-0.0128905
-0.0129542
-0.0130171
-0.0130791
-0.013141
-0.0132029
-0.0132648
-0.0133256
-0.013385
-0.0134434
-0.0135018
-0.0135604
-0.0136187
-0.0136759
-0.0137316
-0.0137866
-0.0138419
-0.0138971
-0.0139517
-0.0140052
-0.0140578
-0.0141092
-0.0141607
-0.0142135
-0.0142661
-0.0143157
-0.0143632
-0.0144134
-0.0144656
-0.0145154
-0.0145605
-0.014608
-0.0146583
-0.0147072
-0.0147518
-0.0147975
-0.0148458
-0.0148926
-0.0149374
-0.0149821
-0.0150286
-0.0150737
-0.0151183
-0.0151625
-0.0152072
-0.0152516
-0.0152954
-0.0153394
-0.0153829
-0.0154271
-0.0154704
-0.0155141
-0.0155578
-0.0156012
-0.0156455
-0.0156885
-0.0157332
-0.0157766
-0.0158212
-0.0158657
-0.0159095
-0.0159555
-0.0159988
-0.0160455
-0.0160892
-0.0161355
-0.0161806
-0.0162258
-0.0162726
-0.0163164
-0.0163643
-0.0164078
-0.0164537
-0.0165
-0.0165401
-0.016587
-0.0166249
-0.0166608
-0.016693
-0.0167201
0.00644053
0.00315817
-0.00319676
-0.00808102
-0.00940795
-0.00839799
-0.00697111
-0.00593564
-0.0053418
-0.00504225
-0.00490564
-0.004862
-0.00488716
-0.0049656
-0.00507342
-0.00518874
-0.00530252
-0.00541408
-0.00552295
-0.00562731
-0.00572585
-0.00581848
-0.00590632
-0.0059912
-0.00607491
-0.00615822
-0.00624158
-0.0063258
-0.00641178
-0.00649982
-0.00658996
-0.00668213
-0.00677645
-0.00687275
-0.00697044
-0.00706858
-0.0071666
-0.00726434
-0.00736174
-0.00745828
-0.0075531
-0.00764547
-0.00773526
-0.00782281
-0.00790842
-0.00799187
-0.00807277
-0.00815122
-0.00822787
-0.0083035
-0.00837853
-0.00845292
-0.00852664
-0.00859983
-0.00867255
-0.00874455
-0.00881549
-0.00888517
-0.00895358
-0.00902077
-0.00908678
-0.00915183
-0.00921651
-0.0092815
-0.00934721
-0.00941367
-0.00948057
-0.00954743
-0.0096139
-0.00967977
-0.00974492
-0.00980929
-0.00987301
-0.00993636
-0.00999974
-0.0100633
-0.010127
-0.0101903
-0.010253
-0.0103149
-0.010376
-0.0104367
-0.010497
-0.0105571
-0.010617
-0.0106775
-0.0107383
-0.0107992
-0.0108596
-0.0109196
-0.0109797
-0.0110404
-0.0111018
-0.0111636
-0.0112252
-0.0112869
-0.0113487
-0.0114109
-0.0114732
-0.0115359
-0.011599
-0.0116627
-0.0117264
-0.0117902
-0.011854
-0.0119183
-0.0119829
-0.0120477
-0.0121126
-0.0121776
-0.0122427
-0.0123077
-0.0123728
-0.0124381
-0.0125034
-0.0125684
-0.0126331
-0.0126973
-0.0127617
-0.012826
-0.0128904
-0.0129541
-0.013017
-0.0130791
-0.0131409
-0.0132029
-0.0132647
-0.0133255
-0.0133849
-0.0134434
-0.0135017
-0.0135604
-0.0136187
-0.0136759
-0.0137316
-0.0137866
-0.0138418
-0.013897
-0.0139516
-0.0140052
-0.0140578
-0.0141091
-0.0141607
-0.0142135
-0.014266
-0.0143157
-0.0143632
-0.0144134
-0.0144656
-0.0145154
-0.0145605
-0.0146079
-0.0146583
-0.0147072
-0.0147518
-0.0147975
-0.0148458
-0.0148925
-0.0149374
-0.0149821
-0.0150286
-0.0150737
-0.0151183
-0.0151625
-0.0152072
-0.0152516
-0.0152954
-0.0153394
-0.0153829
-0.0154271
-0.0154704
-0.0155141
-0.0155578
-0.0156012
-0.0156455
-0.0156885
-0.0157332
-0.0157766
-0.0158212
-0.0158657
-0.0159095
-0.0159555
-0.0159988
-0.0160455
-0.0160892
-0.0161355
-0.0161806
-0.0162258
-0.0162726
-0.0163164
-0.0163643
-0.0164078
-0.0164537
-0.0165
-0.0165401
-0.016587
-0.0166249
-0.0166608
-0.016693
-0.0167201
0.0057398
0.00299364
-0.00293645
-0.00771536
-0.00918119
-0.00830328
-0.0069182
-0.00589027
-0.00530326
-0.00501219
-0.00488299
-0.00484503
-0.00487423
-0.00495533
-0.00506481
-0.00518125
-0.00529589
-0.00540815
-0.00551755
-0.00562233
-0.00572124
-0.00581425
-0.00590246
-0.00598771
-0.00607176
-0.00615537
-0.00623899
-0.00632345
-0.00640963
-0.00649786
-0.00658816
-0.00668046
-0.00677489
-0.00687129
-0.00696905
-0.00706726
-0.00716536
-0.00726316
-0.00736061
-0.0074572
-0.00755206
-0.00764447
-0.0077343
-0.0078219
-0.00790754
-0.00799102
-0.00807195
-0.00815042
-0.0082271
-0.00830277
-0.00837783
-0.00845225
-0.008526
-0.00859923
-0.00867198
-0.00874401
-0.00881498
-0.00888467
-0.0089531
-0.0090203
-0.00908631
-0.00915137
-0.00921607
-0.00928108
-0.00934681
-0.00941329
-0.00948021
-0.00954709
-0.00961356
-0.00967944
-0.00974459
-0.00980897
-0.00987269
-0.00993606
-0.00999946
-0.010063
-0.0101267
-0.0101901
-0.0102528
-0.0103146
-0.0103758
-0.0104365
-0.0104968
-0.0105568
-0.0106168
-0.0106772
-0.0107381
-0.010799
-0.0108594
-0.0109194
-0.0109795
-0.0110402
-0.0111017
-0.0111634
-0.011225
-0.0112867
-0.0113486
-0.0114108
-0.0114731
-0.0115357
-0.0115989
-0.0116625
-0.0117263
-0.0117901