/*--------------------------------*- C++ -*----------------------------------*\
| =========                 |                                                 |
| \\      /  F ield         | OpenFOAM: The Open Source CFD Toolbox           |
|  \\    /   O peration     | Version:  v2012                                 |
|   \\  /    A nd           | Website:  www.openfoam.com                      |
|    \\/     M anipulation  |                                                 |
\*---------------------------------------------------------------------------*/
FoamFile
{
    version     2.0;
    format      ascii;
    class       volVectorField;
    location    "1.5";
    object      U;
}
// * * * * * * * * * * * * * * * * * * * * * * * * * * * * * * * * * * * * * //

dimensions      [0 1 -1 0 0 0 0];


internalField   nonuniform List<vector> 
17600
(
(0.824592 -0.00123812 0)
(1.17442 0.00313645 0)
(0.853144 0.00210011 0)
(1.15535 0.000572008 0)
(0.851931 0.000229998 0)
(1.12987 -0.00103588 0)
(0.857069 0.0021974 0)
(1.11424 -0.00290642 0)
(0.857512 0.00364228 0)
(1.10377 -0.00350277 0)
(0.854841 0.00266345 0)
(1.0961 -0.00112966 0)
(0.853642 0.000501837 0)
(1.09094 0.000387615 0)
(0.852391 0.000595616 0)
(1.08961 -0.000129699 0)
(0.846133 0.00151376 0)
(1.08892 2.39836e-05 0)
(0.834123 0.00287334 0)
(1.0875 0.00036969 0)
(0.834901 -0.00132494 0)
(1.16372 0.00310531 0)
(0.866374 0.00205718 0)
(1.14233 0.000791524 0)
(0.867673 0.000252127 0)
(1.11469 -0.000863881 0)
(0.874353 0.00215166 0)
(1.09564 -0.00268438 0)
(0.877056 0.00353441 0)
(1.08048 -0.00321319 0)
(0.879049 0.00252667 0)
(1.06642 -0.000882902 0)
(0.887316 0.000346353 0)
(1.05246 0.00067464 0)
(0.900228 0.000463233 0)
(1.03681 0.000120295 0)
(0.914625 0.00172415 0)
(1.01232 5.60923e-06 0)
(0.934344 0.00421166 0)
(0.973003 -0.00031701 0)
(0.855352 -0.00140641 0)
(1.14091 0.00304432 0)
(0.890569 0.00206512 0)
(1.11809 0.000960112 0)
(0.895682 0.000327226 0)
(1.08786 -0.000738821 0)
(0.90421 0.00216807 0)
(1.06585 -0.00251843 0)
(0.909704 0.00351479 0)
(1.04738 -0.00303259 0)
(0.916404 0.00252249 0)
(1.02875 -0.000851899 0)
(0.930479 0.000458863 0)
(1.01111 0.000497333 0)
(0.946229 0.000732996 0)
(0.995505 -0.000195001 0)
(0.958146 0.00216048 0)
(0.978909 -0.000336353 0)
(0.965677 0.00464816 0)
(0.963402 0.000506561 0)
(0.883347 -0.00144079 0)
(1.1089 0.00292721 0)
(0.919822 0.00211961 0)
(1.08768 0.00103424 0)
(0.928028 0.000475336 0)
(1.05713 -0.000696263 0)
(0.93633 0.00227974 0)
(1.03579 -0.00246183 0)
(0.942116 0.00361233 0)
(1.01924 -0.00299972 0)
(0.949173 0.00267009 0)
(1.003 -0.000970462 0)
(0.960815 0.000675825 0)
(0.990192 0.000260169 0)
(0.969857 0.00100028 0)
(0.982807 -0.000418854 0)
(0.972969 0.00245369 0)
(0.976731 -0.000420676 0)
(0.971874 0.00487454 0)
(0.970761 0.00146795 0)
(0.914187 -0.0014219 0)
(1.07382 0.0027601 0)
(0.947618 0.0021893 0)
(1.05794 0.00104041 0)
(0.956653 0.000668245 0)
(1.03082 -0.000688812 0)
(0.962064 0.00242583 0)
(1.01409 -0.00244662 0)
(0.96548 0.00372418 0)
(1.00321 -0.00299736 0)
(0.969882 0.00281833 0)
(0.992624 -0.0010695 0)
(0.976562 0.00083688 0)
(0.985647 0.000138865 0)
(0.979992 0.00113436 0)
(0.983228 -0.000476096 0)
(0.979191 0.00259762 0)
(0.980345 -0.000346036 0)
(0.976582 0.00502563 0)
(0.975365 0.00241015 0)
(0.942827 -0.00135687 0)
(1.04243 0.00258096 0)
(0.969434 0.00224436 0)
(1.03433 0.00101021 0)
(0.977143 0.000858836 0)
(1.01355 -0.000675453 0)
(0.978663 0.00254564 0)
(1.00291 -0.00242177 0)
(0.979166 0.00378288 0)
(0.997586 -0.00297036 0)
(0.981059 0.00289432 0)
(0.991403 -0.00110929 0)
(0.98452 0.000922278 0)
(0.987499 8.07142e-05 0)
(0.985665 0.00120602 0)
(0.986528 -0.000478546 0)
(0.983934 0.00267446 0)
(0.984131 -0.000199919 0)
(0.981226 0.00512846 0)
(0.97946 0.00328434 0)
(0.965672 -0.00126279 0)
(1.01933 0.00242713 0)
(0.98396 0.00226274 0)
(1.01889 0.000967971 0)
(0.989444 0.00101161 0)
(1.00503 -0.00064242 0)
(0.988125 0.00261798 0)
(0.999416 -0.00237939 0)
(0.986823 0.00378641 0)
(0.997602 -0.00292537 0)
(0.98753 0.00291492 0)
(0.993694 -0.00111479 0)
(0.989677 0.000962176 0)
(0.990935 5.13437e-05 0)
(0.99015 0.00125381 0)
(0.990248 -0.000460089 0)
(0.988182 0.00271535 0)
(0.987955 2.01247e-05 0)
(0.985427 0.00514811 0)
(0.983628 0.00413179 0)
(0.981444 -0.00116176 0)
(1.00551 0.00231548 0)
(0.992455 0.00224102 0)
(1.01048 0.000926717 0)
(0.995966 0.00111571 0)
(1.00222 -0.000598116 0)
(0.993693 0.00264964 0)
(0.999755 -0.00232954 0)
(0.991864 0.00375573 0)
(0.999654 -0.00287452 0)
(0.992273 0.0029086 0)
(0.996862 -0.00110611 0)
(0.993967 0.000984318 0)
(0.99458 4.0872e-05 0)
(0.994212 0.00128445 0)
(0.993951 -0.000411418 0)
(0.992128 0.00272241 0)
(0.991701 0.000307115 0)
(0.989369 0.00509804 0)
(0.987646 0.00494684 0)
(0.990899 -0.00107196 0)
(0.999042 0.0022418 0)
(0.997116 0.00219274 0)
(1.00659 0.000889672 0)
(0.999309 0.0011789 0)
(1.00204 -0.000557785 0)
(0.997535 0.00265502 0)
(1.00128 -0.00228087 0)
(0.995895 0.00370663 0)
(1.00195 -0.00281932 0)
(0.996278 0.00288381 0)
(0.999893 -0.00108526 0)
(0.997736 0.000994251 0)
(0.997937 4.56714e-05 0)
(0.997853 0.00129543 0)
(0.997329 -0.000322668 0)
(0.995701 0.00268867 0)
(0.995113 0.000657027 0)
(0.992982 0.00501643 0)
(0.991317 0.00570678 0)
(0.995826 -0.00100167 0)
(0.996969 0.00219074 0)
(0.999751 0.00213601 0)
(1.005 0.000854969 0)
(1.00114 0.00121457 0)
(1.0026 -0.000531824 0)
(1.00045 0.00264506 0)
(1.00274 -0.00223684 0)
(0.999215 0.00364636 0)
(1.00381 -0.00275757 0)
(0.999569 0.0028392 0)
(1.00235 -0.00104842 0)
(1.00081 0.00098517 0)
(1.00069 7.03931e-05 0)
(1.00084 0.0012829 0)
(1.0001 -0.00019631 0)
(0.998654 0.00261974 0)
(0.997943 0.00105577 0)
(0.996018 0.00492944 0)
(0.994425 0.00637938 0)
(0.998062 -0.000950182 0)
(0.996836 0.00214727 0)
(1.00136 0.0020829 0)
(1.00439 0.000820814 0)
(1.00221 0.00123448 0)
(1.00312 -0.000522478 0)
(1.00258 0.00262558 0)
(1.00377 -0.00219711 0)
(1.00171 0.00357706 0)
(1.00507 -0.00268707 0)
(1.00199 0.00277328 0)
(1.00409 -0.000993013 0)
(1.00304 0.000951274 0)
(1.00267 0.000121659 0)
(1.003 0.00124213 0)
(1.00212 -3.38901e-05 0)
(1.00082 0.00252386 0)
(1.00005 0.00148109 0)
(0.998312 0.00486151 0)
(0.996819 0.00694104 0)
(0.998951 -0.000912506 0)
(0.997241 0.0021026 0)
(1.00235 0.00203739 0)
(1.00414 0.000786576 0)
(1.00284 0.00124653 0)
(1.00342 -0.000526624 0)
(1.00394 0.00259926 0)
(1.00436 -0.0021597 0)
(1.00333 0.00349914 0)
(1.00581 -0.00260641 0)
(1.00355 0.00268623 0)
(1.00517 -0.000917937 0)
(1.00444 0.000891466 0)
(1.00394 0.000199396 0)
(1.00436 0.0011726 0)
(1.00343 0.000161812 0)
(1.00223 0.00241418 0)
(1.00144 0.00190533 0)
(0.999884 0.00483672 0)
(0.998507 0.00738189 0)
(0.999267 -0.000883452 0)
(0.997625 0.00205416 0)
(1.00293 0.00199824 0)
(1.00404 0.000751817 0)
(1.00318 0.00125499 0)
(1.00356 -0.000539523 0)
(1.0047 0.00256739 0)
(1.00467 -0.00212223 0)
(1.00425 0.00341227 0)
(1.00619 -0.00251396 0)
(1.00442 0.00257821 0)
(1.00573 -0.00082207 0)
(1.00522 0.000806227 0)
(1.00464 0.000300654 0)
(1.00511 0.00107853 0)
(1.00418 0.000380706 0)
(1.00304 0.00231066 0)
(1.00229 0.00230214 0)
(1.00089 0.00487339 0)
(0.999631 0.0077077 0)
(0.999376 -0.000859376 0)
(0.99787 0.00200277 0)
(1.00324 0.00196257 0)
(1.00399 0.000716125 0)
(1.00332 0.0012616 0)
(1.00362 -0.000556693 0)
(1.00505 0.00253006 0)
(1.00481 -0.00208155 0)
(1.00469 0.00331453 0)
(1.00635 -0.00240698 0)
(1.00486 0.00244817 0)
(1.00598 -0.000703591 0)
(1.0056 0.000695736 0)
(1.00498 0.000422035 0)
(1.00547 0.000967287 0)
(1.00457 0.000606327 0)
(1.00349 0.00223444 0)
(1.00278 0.0026512 0)
(1.00153 0.00497636 0)
(1.00038 0.00793859 0)
(0.999421 -0.000838325 0)
(0.998008 0.00195017 0)
(1.00337 0.00192778 0)
(1.00397 0.000679289 0)
(1.00337 0.00126649 0)
(1.00365 -0.000574592 0)
(1.00518 0.00248648 0)
(1.00487 -0.00203421 0)
(1.00487 0.0032034 0)
(1.00641 -0.00228259 0)
(1.00505 0.00229367 0)
(1.00606 -0.000559502 0)
(1.00577 0.000558928 0)
(1.00513 0.000561077 0)
(1.00562 0.000851843 0)
(1.00478 0.000822963 0)
(1.00373 0.00220251 0)
(1.00308 0.00294569 0)
(1.00197 0.00513655 0)
(1.00092 0.00810317 0)
(0.999452 -0.000819533 0)
(0.99809 0.00189804 0)
(1.00342 0.0018918 0)
(1.00395 0.000641545 0)
(1.00337 0.0012691 0)
(1.00366 -0.000590865 0)
(1.0052 0.00243559 0)
(1.0049 -0.0019783 0)
(1.00492 0.0030782 0)
(1.00642 -0.00214085 0)
(1.00515 0.00211646 0)
(1.00605 -0.00039502 0)
(1.00585 0.000404702 0)
(1.00519 0.000709637 0)
(1.00568 0.000742931 0)
(1.00489 0.00101237 0)
(1.00389 0.00222131 0)
(1.00329 0.00319149 0)
(1.00231 0.00533424 0)
(1.00135 0.008231 0)
(0.999482 -0.000802881 0)
(0.998148 0.00184779 0)
(1.00344 0.00185308 0)
(1.00394 0.000603449 0)
(1.00334 0.00126846 0)
(1.00367 -0.00060361 0)
(1.00517 0.0023757 0)
(1.00492 -0.00191145 0)
(1.00493 0.00293751 0)
(1.0064 -0.0019815 0)
(1.0052 0.0019193 0)
(1.00601 -0.00021644 0)
(1.0059 0.000241648 0)
(1.00522 0.000856636 0)
(1.00571 0.000656016 0)
(1.00498 0.00116327 0)
(1.00402 0.00229063 0)
(1.00349 0.0033995 0)
(1.00262 0.00554341 0)
(1.00174 0.00834582 0)
(0.999512 -0.000788509 0)
(0.998197 0.00180049 0)
(1.00343 0.00181032 0)
(1.00392 0.000565863 0)
(1.00331 0.00126299 0)
(1.00368 -0.000610642 0)
(1.00513 0.0023043 0)
(1.00493 -0.00183032 0)
(1.00491 0.00277801 0)
(1.00638 -0.00180228 0)
(1.00525 0.00170199 0)
(1.00596 -2.75533e-05 0)
(1.00593 7.69123e-05 0)
(1.00524 0.000989789 0)
(1.00573 0.000606466 0)
(1.00506 0.00127624 0)
(1.00414 0.00240471 0)
(1.00367 0.00358105 0)
(1.00292 0.00574029 0)
(1.0021 0.00845872 0)
(0.999543 -0.000776685 0)
(0.998243 0.00175726 0)
(1.00342 0.0017619 0)
(1.00391 0.000530273 0)
(1.00327 0.00125057 0)
(1.00369 -0.000609565 0)
(1.00509 0.0022193 0)
(1.00493 -0.00173424 0)
(1.0049 0.00259949 0)
(1.00635 -0.00160546 0)
(1.00529 0.00146898 0)
(1.00591 0.000161463 0)
(1.00597 -7.31557e-05 0)
(1.00526 0.00109128 0)
(1.00575 0.000598291 0)
(1.00516 0.00135508 0)
(1.00426 0.00255177 0)
(1.00387 0.00375067 0)
(1.00322 0.00591288 0)
(1.00247 0.00857025 0)
(0.999574 -0.000767735 0)
(0.998289 0.00171923 0)
(1.0034 0.00170615 0)
(1.00389 0.000497962 0)
(1.00324 0.00122917 0)
(1.0037 -0.000598662 0)
(1.00504 0.00211994 0)
(1.00493 -0.00162328 0)
(1.00488 0.00240337 0)
(1.00631 -0.00139566 0)
(1.00533 0.00122735 0)
(1.00585 0.000344338 0)
(1.006 -0.000203427 0)
(1.00529 0.0011528 0)
(1.00576 0.000631736 0)
(1.00526 0.00140464 0)
(1.0044 0.00271609 0)
(1.00407 0.00392449 0)
(1.00353 0.00606098 0)
(1.00282 0.00867686 0)
(0.999605 -0.000762029 0)
(0.998336 0.00168749 0)
(1.00338 0.00164169 0)
(1.00388 0.000469993 0)
(1.0032 0.00119664 0)
(1.0037 -0.000576667 0)
(1.00499 0.00200526 0)
(1.00493 -0.0014966 0)
(1.00487 0.00219237 0)
(1.00627 -0.00117872 0)
(1.00538 0.000986224 0)
(1.00579 0.000513102 0)
(1.00603 -0.000312127 0)
(1.00532 0.00117256 0)
(1.00577 0.000700429 0)
(1.00537 0.00143053 0)
(1.00454 0.00287861 0)
(1.00428 0.00411132 0)
(1.00385 0.00618979 0)
(1.00319 0.00877307 0)
(0.999636 -0.000759807 0)
(0.998384 0.00166283 0)
(1.00335 0.00156748 0)
(1.00386 0.000448694 0)
(1.00316 0.00115182 0)
(1.00371 -0.00054254 0)
(1.00495 0.00187453 0)
(1.00493 -0.00135605 0)
(1.00485 0.00197152 0)
(1.00623 -0.000962761 0)
(1.00542 0.000759157 0)
(1.00574 0.000649024 0)
(1.00605 -0.000384018 0)
(1.00537 0.0011541 0)
(1.00578 0.000797343 0)
(1.0055 0.00144391 0)
(1.00471 0.00302434 0)
(1.0045 0.00431078 0)
(1.00418 0.00630688 0)
(1.00355 0.00885393 0)
(0.999667 -0.0007614 0)
(0.998433 0.001646 0)
(1.00333 0.00148236 0)
(1.00385 0.000435805 0)
(1.00311 0.00109346 0)
(1.00371 -0.00049637 0)
(1.0049 0.00173044 0)
(1.00492 -0.00120668 0)
(1.00484 0.00174691 0)
(1.00618 -0.000757658 0)
(1.00547 0.00055579 0)
(1.00569 0.0007458 0)
(1.00607 -0.000415377 0)
(1.00542 0.00110495 0)
(1.0058 0.000911458 0)
(1.00563 0.00145616 0)
(1.00489 0.00314322 0)
(1.00472 0.00451523 0)
(1.00451 0.00641773 0)
(1.00393 0.00891333 0)
(0.999697 -0.000766891 0)
(0.998482 0.00163854 0)
(1.0033 0.00138302 0)
(1.00383 0.000431357 0)
(1.00307 0.00102281 0)
(1.00371 -0.000442002 0)
(1.00485 0.00157711 0)
(1.00491 -0.00105252 0)
(1.00483 0.00152651 0)
(1.00613 -0.000572648 0)
(1.00551 0.000377433 0)
(1.00564 0.000810005 0)
(1.00609 -0.000417532 0)
(1.00549 0.00103212 0)
(1.00582 0.00103025 0)
(1.00576 0.0014795 0)
(1.0051 0.00323377 0)
(1.00496 0.00471706 0)
(1.00485 0.00652736 0)
(1.00432 0.00894894 0)
(0.999728 -0.000776767 0)
(0.998529 0.00164211 0)
(1.00327 0.00126806 0)
(1.00382 0.000435095 0)
(1.00303 0.00094004 0)
(1.00371 -0.00037855 0)
(1.00481 0.00141537 0)
(1.0049 -0.000901259 0)
(1.00483 0.00132106 0)
(1.00608 -0.00041836 0)
(1.00555 0.000227835 0)
(1.0056 0.000836542 0)
(1.00609 -0.000395194 0)
(1.00556 0.000945473 0)
(1.00585 0.0011465 0)
(1.00591 0.00152196 0)
(1.00533 0.00329816 0)
(1.00521 0.00490619 0)
(1.00519 0.00663822 0)
(1.00472 0.00896343 0)
(0.99976 -0.000791453 0)
(0.998576 0.00165638 0)
(1.00324 0.00113974 0)
(1.0038 0.000445423 0)
(1.00299 0.00084646 0)
(1.00371 -0.000309835 0)
(1.00477 0.00125452 0)
(1.00488 -0.000766065 0)
(1.00482 0.00113983 0)
(1.00603 -0.000298321 0)
(1.00559 0.000106496 0)
(1.00557 0.000831775 0)
(1.0061 -0.000357119 0)
(1.00564 0.000856096 0)
(1.00589 0.00125649 0)
(1.00605 0.00159823 0)
(1.00558 0.00334685 0)
(1.00547 0.00508013 0)
(1.00553 0.00674937 0)
(1.00512 0.00896322 0)
(0.999792 -0.000809557 0)
(0.99862 0.0016811 0)
(1.00321 0.000996928 0)
(1.00378 0.000460421 0)
(1.00295 0.000748012 0)
(1.0037 -0.000246372 0)
(1.00473 0.00110143 0)
(1.00486 -0.000651993 0)
(1.00481 0.000982515 0)
(1.00598 -0.000204323 0)
(1.00563 1.70435e-06 0)
(1.00554 0.000814509 0)
(1.00609 -0.000311139 0)
(1.00574 0.000773165 0)
(1.00594 0.00137175 0)
(1.0062 0.00173699 0)
(1.00584 0.00340983 0)
(1.00576 0.00524769 0)
(1.00587 0.00687148 0)
(1.00554 0.00896758 0)
(0.999824 -0.00083229 0)
(0.998661 0.00171814 0)
(1.00318 0.00084362 0)
(1.00376 0.000477625 0)
(1.0029 0.000647442 0)
(1.00369 -0.00019152 0)
(1.00468 0.000964397 0)
(1.00484 -0.000564211 0)
(1.00481 0.000846103 0)
(1.00593 -0.000131673 0)
(1.00567 -9.2178e-05 0)
(1.00551 0.000791828 0)
(1.00609 -0.000245821 0)
(1.00584 0.000708743 0)
(1.00601 0.00151658 0)
(1.00635 0.00193755 0)
(1.00612 0.00350302 0)
(1.00606 0.00539137 0)
(1.00622 0.00700573 0)
(1.00596 0.00897892 0)
(0.999856 -0.000859851 0)
(0.9987 0.00176924 0)
(1.00314 0.000679955 0)
(1.00374 0.000490837 0)
(1.00286 0.000550847 0)
(1.00367 -0.00015446 0)
(1.00464 0.000856998 0)
(1.00482 -0.000504777 0)
(1.0048 0.000734106 0)
(1.00587 -6.95854e-05 0)
(1.0057 -0.000173519 0)
(1.0055 0.000769343 0)
(1.00608 -0.000132775 0)
(1.00595 0.000703795 0)
(1.0061 0.00170345 0)
(1.0065 0.00219068 0)
(1.0064 0.00362231 0)
(1.00638 0.00549657 0)
(1.00657 0.00712476 0)
(1.00638 0.00898258 0)
(0.999887 -0.000891089 0)
(0.998734 0.00183062 0)
(1.00309 0.000507586 0)
(1.00372 0.000491892 0)
(1.00281 0.000470582 0)
(1.00366 -0.000147534 0)
(1.0046 0.000774763 0)
(1.00479 -0.000464564 0)
(1.00479 0.000634376 0)
(1.00581 -4.56233e-06 0)
(1.00573 -0.000233098 0)
(1.00549 0.000764951 0)
(1.00608 5.90178e-05 0)
(1.00607 0.000774139 0)
(1.00622 0.00190021 0)
(1.00666 0.00247642 0)
(1.00669 0.00376698 0)
(1.00671 0.00557563 0)
(1.00692 0.00721005 0)
(1.00679 0.00896945 0)
(0.999919 -0.000925052 0)
(0.998762 0.00189499 0)
(1.00304 0.000338364 0)
(1.0037 0.000471168 0)
(1.00276 0.000413907 0)
(1.00364 -0.000168066 0)
(1.00455 0.000714385 0)
(1.00476 -0.000433631 0)
(1.00479 0.000539513 0)
(1.00575 6.70794e-05 0)
(1.00576 -0.000249665 0)
(1.0055 0.000797707 0)
(1.00608 0.000313323 0)
(1.0062 0.000878925 0)
(1.00635 0.00205319 0)
(1.00681 0.0027365 0)
(1.00696 0.00391818 0)
(1.00705 0.00563053 0)
(1.00729 0.00725119 0)
(1.00721 0.00892032 0)
(0.99995 -0.000959071 0)
(0.998785 0.00195665 0)
(1.00299 0.000182811 0)
(1.00367 0.000416773 0)
(1.0027 0.000381477 0)
(1.00362 -0.000214869 0)
(1.0045 0.000674228 0)
(1.00473 -0.000401234 0)
(1.00479 0.000451855 0)
(1.0057 0.000164308 0)
(1.00579 -0.000203165 0)
(1.00553 0.00085181 0)
(1.00608 0.000590043 0)
(1.00632 0.00100843 0)
(1.0065 0.00215929 0)
(1.00698 0.00294346 0)
(1.00723 0.00405549 0)
(1.00739 0.00567013 0)
(1.00766 0.0072506 0)
(1.00762 0.00883103 0)
(0.999981 -0.000994336 0)
(0.998802 0.0020169 0)
(1.00292 4.27743e-05 0)
(1.00365 0.000323108 0)
(1.00265 0.000376793 0)
(1.00359 -0.000285732 0)
(1.00446 0.000640221 0)
(1.00469 -0.000346138 0)
(1.00479 0.000368767 0)
(1.00564 0.000302369 0)
(1.00582 -9.94377e-05 0)
(1.00557 0.000899661 0)
(1.00609 0.000856854 0)
(1.00643 0.00116898 0)
(1.00667 0.00224167 0)
(1.00716 0.00309944 0)
(1.0075 0.00417233 0)
(1.00773 0.00570464 0)
(1.00803 0.00722676 0)
(1.00802 0.00871679 0)
(1.00001 -0.0010291 0)
(0.998813 0.00207093 0)
(1.00284 -6.80185e-05 0)
(1.00363 0.000193725 0)
(1.00258 0.000394431 0)
(1.00357 -0.000365773 0)
(1.00442 0.000603124 0)
(1.00464 -0.000252356 0)
(1.0048 0.000303206 0)
(1.0056 0.000462449 0)
(1.00584 3.85225e-05 0)
(1.00563 0.000933971 0)
(1.00611 0.00108237 0)
(1.00653 0.00134493 0)
(1.00683 0.00231615 0)
(1.00735 0.00321082 0)
(1.00778 0.00426419 0)
(1.00808 0.00572729 0)
(1.0084 0.00718529 0)
(1.00841 0.00858341 0)
(1.00004 -0.0010612 0)
(0.998819 0.002108 0)
(1.00276 -0.000130848 0)
(1.00362 3.95846e-05 0)
(1.00252 0.00042733 0)
(1.00353 -0.000440657 0)
(1.00439 0.000561725 0)
(1.00459 -0.00012363 0)
(1.00481 0.000268966 0)
(1.00556 0.000614059 0)
(1.00585 0.00021947 0)
(1.00569 0.000964052 0)
(1.00614 0.00126033 0)
(1.00663 0.00152823 0)
(1.007 0.0024002 0)
(1.00754 0.00329878 0)
(1.00805 0.00433573 0)
(1.00842 0.00573383 0)
(1.00876 0.00712838 0)
(1.00879 0.00843708 0)
(1.00007 -0.00108876 0)
(0.998823 0.00212534 0)
(1.00265 -0.000151917 0)
(1.0036 -0.000140212 0)
(1.00245 0.000468425 0)
(1.00349 -0.000500129 0)
(1.00436 0.000512312 0)
(1.00454 4.13197e-05 0)
(1.00482 0.000265476 0)
(1.00554 0.000738405 0)
(1.00585 0.000435889 0)
(1.00575 0.00100599 0)
(1.00618 0.00139174 0)
(1.00672 0.0017072 0)
(1.00716 0.00250069 0)
(1.00775 0.0033814 0)
(1.00833 0.00439033 0)
(1.00877 0.00572093 0)
(1.00913 0.00705463 0)
(1.00915 0.00828164 0)
(1.00009 -0.00111072 0)
(0.998824 0.00211988 0)
(1.00253 -0.000138671 0)
(1.00358 -0.000337319 0)
(1.00238 0.000510584 0)
(1.00345 -0.000534357 0)
(1.00435 0.000452329 0)
(1.00449 0.000238345 0)
(1.00483 0.000289431 0)
(1.00553 0.00082753 0)
(1.00585 0.000655717 0)
(1.0058 0.00107274 0)
(1.00624 0.00148466 0)
(1.00682 0.00186498 0)
(1.00732 0.00261259 0)
(1.00795 0.00346368 0)
(1.00861 0.00442646 0)
(1.00911 0.0056839 0)
(1.00949 0.00696005 0)
(1.00951 0.00811792 0)
(1.00012 -0.00112652 0)
(0.998824 0.00208606 0)
(1.0024 -9.15755e-05 0)
(1.00356 -0.000531913 0)
(1.00232 0.000552954 0)
(1.00339 -0.000525841 0)
(1.00434 0.000374152 0)
(1.00445 0.000446447 0)
(1.00483 0.000345057 0)
(1.00553 0.000876072 0)
(1.00585 0.000863901 0)
(1.00585 0.00117377 0)
(1.0063 0.00156088 0)
(1.00693 0.00199363 0)
(1.00749 0.00272496 0)
(1.00816 0.00354574 0)
(1.00888 0.00444665 0)
(1.00945 0.00562184 0)
(1.00985 0.00684159 0)
(1.00986 0.00794306 0)
(1.00014 -0.00113257 0)
(0.998826 0.00202006 0)
(1.00226 -1.91634e-05 0)
(1.00355 -0.000713848 0)
(1.00226 0.000593875 0)
(1.00333 -0.000468085 0)
(1.00435 0.000282766 0)
(1.0044 0.00064582 0)
(1.00481 0.000444187 0)
(1.00555 0.000891462 0)
(1.00585 0.00104606 0)
(1.00589 0.00130821 0)
(1.00636 0.00164067 0)
(1.00704 0.00209474 0)
(1.00766 0.00282468 0)
(1.00836 0.0036262 0)
(1.00915 0.00446051 0)
(1.00979 0.00554143 0)
(1.01021 0.00669974 0)
(1.0102 0.0077522 0)
(1.00016 -0.00113015 0)
(0.998832 0.00192229 0)
(1.0021 7.80835e-05 0)
(1.00352 -0.000873507 0)
(1.00222 0.000630891 0)
(1.00326 -0.000362796 0)
(1.00437 0.000191315 0)
(1.00438 0.000818202 0)
(1.00479 0.000589955 0)
(1.00556 0.00089732 0)
(1.00587 0.00118998 0)
(1.00592 0.00146895 0)
(1.00643 0.00173701 0)
(1.00717 0.00217796 0)
(1.00783 0.00290457 0)
(1.00856 0.00370197 0)
(1.00941 0.00447866 0)
(1.01012 0.00545545 0)
(1.01057 0.00653973 0)
(1.01054 0.00754337 0)
(1.00018 -0.00111895 0)
(0.998842 0.00179902 0)
(1.00193 0.000198295 0)
(1.0035 -0.00100817 0)
(1.00219 0.000660565 0)
(1.00318 -0.000205295 0)
(1.0044 0.000108832 0)
(1.00436 0.000948931 0)
(1.00475 0.000769292 0)
(1.00558 0.00091243 0)
(1.00591 0.00128891 0)
(1.00596 0.00163739 0)
(1.00649 0.00185669 0)
(1.00729 0.00225372 0)
(1.00802 0.00296334 0)
(1.00877 0.00376492 0)
(1.00966 0.00450121 0)
(1.01044 0.00537186 0)
(1.01092 0.00636555 0)
(1.01088 0.0073146 0)
(1.00019 -0.00109557 0)
(0.99886 0.00165248 0)
(1.00176 0.000329233 0)
(1.00347 -0.00112082 0)
(1.00217 0.000675252 0)
(1.00308 8.74244e-07 0)
(1.00442 5.22182e-05 0)
(1.00437 0.0010351 0)
(1.00471 0.000972424 0)
(1.00559 0.000952917 0)
(1.00595 0.00134783 0)
(1.006 0.00179024 0)
(1.00654 0.00199625 0)
(1.00741 0.00232711 0)
(1.00821 0.00299947 0)
(1.00899 0.00380388 0)
(1.0099 0.00451768 0)
(1.01074 0.00529047 0)
(1.01127 0.00617974 0)
(1.01121 0.00706454 0)
(1.0002 -0.00106206 0)
(0.998885 0.00148826 0)
(1.00158 0.000466602 0)
(1.00344 -0.00120742 0)
(1.00218 0.000669094 0)
(1.00299 0.000248755 0)
(1.00443 2.67096e-05 0)
(1.0044 0.00106859 0)
(1.00466 0.00118089 0)
(1.00558 0.00102857 0)
(1.00601 0.00137926 0)
(1.00605 0.00191204 0)
(1.00658 0.00214638 0)
(1.00752 0.00240775 0)
(1.0084 0.00302034 0)
(1.00921 0.00381666 0)
(1.01013 0.00451994 0)
(1.01102 0.00521048 0)
(1.0116 0.00598853 0)
(1.01155 0.00679687 0)
(1.00021 -0.00101822 0)
(0.99892 0.0013095 0)
(1.00139 0.000606053 0)
(1.0034 -0.00125832 0)
(1.00221 0.000640338 0)
(1.00288 0.000523611 0)
(1.00443 5.15559e-05 0)
(1.00444 0.00105979 0)
(1.00462 0.00137601 0)
(1.00556 0.00114296 0)
(1.00608 0.00140219 0)
(1.00612 0.00199568 0)
(1.00663 0.00229059 0)
(1.00762 0.00249846 0)
(1.00859 0.00303191 0)
(1.00944 0.00380097 0)
(1.01036 0.00449826 0)
(1.01128 0.00512639 0)
(1.0119 0.00579693 0)
(1.01187 0.00651792 0)
(1.00021 -0.00096161 0)
(0.998965 0.00111536 0)
(1.00121 0.000744873 0)
(1.00335 -0.00126727 0)
(1.00226 0.000579236 0)
(1.00278 0.000806724 0)
(1.0044 0.000142668 0)
(1.0045 0.00102774 0)
(1.00459 0.00154506 0)
(1.00553 0.00129494 0)
(1.00614 0.00143546 0)
(1.00621 0.00204319 0)
(1.00668 0.00241446 0)
(1.00771 0.00259674 0)
(1.00878 0.0030403 0)
(1.00967 0.0037592 0)
(1.01059 0.00444787 0)
(1.01152 0.00503391 0)
(1.01218 0.00560994 0)
(1.01217 0.00623752 0)
(1.00021 -0.000896161 0)
(0.999021 0.000913684 0)
(1.00104 0.000881578 0)
(1.00328 -0.00123168 0)
(1.00234 0.000484183 0)
(1.00269 0.00108696 0)
(1.00436 0.000302256 0)
(1.00457 0.000991176 0)
(1.00458 0.00167651 0)
(1.00548 0.00147654 0)
(1.00619 0.00149254 0)
(1.00631 0.00206855 0)
(1.00675 0.00251434 0)
(1.00779 0.00269955 0)
(1.00895 0.00305238 0)
(1.00991 0.00369898 0)
(1.01083 0.00436888 0)
(1.01175 0.00492878 0)
(1.01244 0.00542808 0)
(1.01245 0.0059625 0)
(1.00021 -0.00081838 0)
(0.999088 0.000704546 0)
(1.00087 0.00100474 0)
(1.0032 -0.00113956 0)
(1.00244 0.000368335 0)
(1.00262 0.00133895 0)
(1.00428 0.00053578 0)
(1.00464 0.000980193 0)
(1.00459 0.0017665 0)
(1.00542 0.0016682 0)
(1.00623 0.00157775 0)
(1.00642 0.00208489 0)
(1.00682 0.00258698 0)
(1.00786 0.00279554 0)
(1.00909 0.00306572 0)
(1.01013 0.00362245 0)
(1.01107 0.00425813 0)
(1.01197 0.00480075 0)
(1.01267 0.00524315 0)
(1.01271 0.00569175 0)
(1.0002 -0.000732938 0)
(0.999166 0.000501301 0)
(1.00072 0.00110491 0)
(1.00311 -0.000984448 0)
(1.00257 0.000249676 0)
(1.00258 0.00153115 0)
(1.00419 0.000819328 0)
(1.0047 0.0010115 0)
(1.00462 0.00182178 0)
(1.00537 0.00185237 0)
(1.00624 0.0016955 0)
(1.00653 0.00210786 0)
(1.00691 0.00263713 0)
(1.00792 0.00287875 0)
(1.00922 0.00308155 0)
(1.01034 0.00353731 0)
(1.0113 0.00412036 0)
(1.01219 0.00464533 0)
(1.01287 0.00504891 0)
(1.01293 0.00542431 0)
(1.00019 -0.000641062 0)
(0.999254 0.000309324 0)
(1.00059 0.00118439 0)
(1.003 -0.000767089 0)
(1.0027 0.00014876 0)
(1.00258 0.00165539 0)
(1.00409 0.0011259 0)
(1.00473 0.00109493 0)
(1.00467 0.00185414 0)
(1.00532 0.00201081 0)
(1.00624 0.00183213 0)
(1.00664 0.00213933 0)
(1.00702 0.00266564 0)
(1.00798 0.00294385 0)
(1.00932 0.00310059 0)
(1.01052 0.00345319 0)
(1.01153 0.00396468 0)
(1.0124 0.00446213 0)
(1.01306 0.00483818 0)
(1.01312 0.00515485 0)
(1.00018 -0.000543448 0)
(0.999351 0.000139568 0)
(1.00049 0.00124124 0)
(1.00288 -0.000505186 0)
(1.00283 7.88455e-05 0)
(1.00262 0.00171598 0)
(1.00398 0.0014283 0)
(1.00475 0.00123113 0)
(1.00473 0.0018815 0)
(1.00529 0.00213991 0)
(1.00622 0.00197481 0)
(1.00673 0.00218035 0)
(1.00712 0.002675 0)
(1.00804 0.00298722 0)
(1.00939 0.00311957 0)
(1.01068 0.00337609 0)
(1.01174 0.00380011 0)
(1.0126 0.00425401 0)
(1.01324 0.00460481 0)
(1.01329 0.00487581 0)
(1.00016 -0.000448473 0)
(0.999454 1.46501e-05 0)
(1.00042 0.00126593 0)
(1.00275 -0.000217447 0)
(1.00295 5.51658e-05 0)
(1.00269 0.00172126 0)
(1.00388 0.00169886 0)
(1.00474 0.00141297 0)
(1.00479 0.00192772 0)
(1.00527 0.00225408 0)
(1.00619 0.0021218 0)
(1.0068 0.0022356 0)
(1.00724 0.00266975 0)
(1.00811 0.00300399 0)
(1.00945 0.00312812 0)
(1.0108 0.00330355 0)
(1.01192 0.00363267 0)
(1.01279 0.00402712 0)
(1.0134 0.00434858 0)
(1.01343 0.00458348 0)
(1.00015 -0.000356098 0)
(0.999559 -6.26756e-05 0)
(1.00038 0.00126471 0)
(1.00261 8.07356e-05 0)
(1.00306 8.99146e-05 0)
(1.0028 0.00169131 0)
(1.00381 0.00192973 0)
(1.0047 0.00162682 0)
(1.00484 0.00199954 0)
(1.00526 0.00235359 0)
(1.00616 0.00226096 0)
(1.00685 0.00229918 0)
(1.00734 0.00265222 0)
(1.00817 0.00298917 0)
(1.00949 0.00311389 0)
(1.01088 0.0032272 0)
(1.01207 0.00346326 0)
(1.01297 0.00378632 0)
(1.01355 0.00407093 0)
(1.01355 0.0042743 0)
(1.00013 -0.000266624 0)
(0.999664 -0.000103217 0)
(1.00037 0.00124577 0)
(1.00247 0.000383131 0)
(1.00315 0.000187454 0)
(1.00292 0.00164532 0)
(1.00375 0.00211492 0)
(1.00465 0.00185354 0)
(1.00487 0.00209786 0)
(1.00525 0.00244375 0)
(1.00611 0.00239313 0)
(1.00687 0.00237408 0)
(1.00743 0.00263667 0)
(1.00824 0.00295027 0)
(1.00952 0.00307552 0)
(1.01094 0.00314164 0)
(1.01218 0.00329165 0)
(1.01311 0.00353569 0)
(1.01368 0.00377462 0)
(1.01365 0.00394667 0)
(1.00012 -0.00018259 0)
(0.999764 -0.000106026 0)
(1.00038 0.00121035 0)
(1.00234 0.000678461 0)
(1.0032 0.000354907 0)
(1.00306 0.00160985 0)
(1.00373 0.00225468 0)
(1.0046 0.00207884 0)
(1.00489 0.00222532 0)
(1.00525 0.00253512 0)
(1.00606 0.00252464 0)
(1.00686 0.00246171 0)
(1.0075 0.00263322 0)
(1.0083 0.00289495 0)
(1.00953 0.00301389 0)
(1.01096 0.00303879 0)
(1.01225 0.00311204 0)
(1.01322 0.00327255 0)
(1.01379 0.00345655 0)
(1.01373 0.00359386 0)
(1.0001 -0.000105561 0)
(0.999856 -6.64282e-05 0)
(1.00042 0.00117619 0)
(1.00223 0.000943264 0)
(1.00323 0.000579766 0)
(1.0032 0.00160867 0)
(1.00373 0.00235439 0)
(1.00453 0.00229213 0)
(1.00489 0.0023753 0)
(1.00524 0.00263425 0)
(1.006 0.00265363 0)
(1.00683 0.0025607 0)
(1.00753 0.00264521 0)
(1.00834 0.00283501 0)
(1.00953 0.00293347 0)
(1.01094 0.00291867 0)
(1.01227 0.00292305 0)
(1.01328 0.00299885 0)
(1.01386 0.00311726 0)
(1.01378 0.0032133 0)
(1.00009 -3.76471e-05 0)
(0.999938 8.14167e-06 0)
(1.00047 0.00115361 0)
(1.00213 0.00118107 0)
(1.00323 0.000835731 0)
(1.00333 0.00165554 0)
(1.00376 0.00242865 0)
(1.00448 0.00249069 0)
(1.00488 0.00253794 0)
(1.00522 0.0027472 0)
(1.00593 0.00277545 0)
(1.00677 0.0026684 0)
(1.00753 0.00266983 0)
(1.00835 0.0027817 0)
(1.0095 0.00283755 0)
(1.01089 0.00278614 0)
(1.01224 0.00272378 0)
(1.01329 0.00271896 0)
(1.01389 0.00276238 0)
(1.0138 0.00280954 0)
(1.00007 2.57265e-05 0)
(1.00001 0.000108624 0)
(1.00054 0.00114901 0)
(1.00205 0.00138547 0)
(1.00321 0.00111435 0)
(1.00343 0.0017535 0)
(1.0038 0.00250787 0)
(1.00443 0.00267571 0)
(1.00484 0.00271439 0)
(1.00519 0.0028734 0)
(1.00585 0.00289702 0)
(1.00669 0.00277723 0)
(1.00748 0.00270695 0)
(1.00832 0.00273527 0)
(1.00944 0.00273239 0)
(1.0108 0.00263796 0)
(1.01216 0.00251135 0)
(1.01324 0.00242696 0)
(1.01386 0.0023946 0)
(1.01377 0.00238358 0)
(1.00006 8.51687e-05 0)
(1.00007 0.000229805 0)
(1.00061 0.0011725 0)
(1.00199 0.0015626 0)
(1.00317 0.00140148 0)
(1.00351 0.00189777 0)
(1.00384 0.00260733 0)
(1.00438 0.00285244 0)
(1.00479 0.00290606 0)
(1.00514 0.00301561 0)
(1.00576 0.00302624 0)
(1.00657 0.00288811 0)
(1.00739 0.00275739 0)
(1.00825 0.00269767 0)
(1.00934 0.00262591 0)
(1.01066 0.00247616 0)
(1.01202 0.00228693 0)
(1.01312 0.00212301 0)
(1.01377 0.00201562 0)
(1.01369 0.00194051 0)
(1.00005 0.000137476 0)
(1.00011 0.000365038 0)
(1.00067 0.00122478 0)
(1.00194 0.00172883 0)
(1.00313 0.00168741 0)
(1.00357 0.00208628 0)
(1.00388 0.00273316 0)
(1.00434 0.00303205 0)
(1.00473 0.00310797 0)
(1.00507 0.00318087 0)
(1.00564 0.00316559 0)
(1.00642 0.00300608 0)
(1.00725 0.00281733 0)
(1.00812 0.00267054 0)
(1.00919 0.00251914 0)
(1.01047 0.00230446 0)
(1.01181 0.00204899 0)
(1.01293 0.00180784 0)
(1.01361 0.0016217 0)
(1.01355 0.00148019 0)
(1.00005 0.000189634 0)
(1.00015 0.000504475 0)
(1.00073 0.00130592 0)
(1.00191 0.00188812 0)
(1.00307 0.0019674 0)
(1.0036 0.00230926 0)
(1.00391 0.00289092 0)
(1.0043 0.00322102 0)
(1.00465 0.00332306 0)
(1.00497 0.00336766 0)
(1.0055 0.00332472 0)
(1.00624 0.00313632 0)
(1.00706 0.00289253 0)
(1.00793 0.00265854 0)
(1.00897 0.0024192 0)
(1.01021 0.0021289 0)
(1.01153 0.00179774 0)
(1.01266 0.00147698 0)
(1.01337 0.00120515 0)
(1.01333 0.000989934 0)
(1.00004 0.000238496 0)
(1.00018 0.000648508 0)
(1.00078 0.00141498 0)
(1.00189 0.00204637 0)
(1.00301 0.00224097 0)
(1.0036 0.00255556 0)
(1.00393 0.00307789 0)
(1.00425 0.00342598 0)
(1.00455 0.00355353 0)
(1.00485 0.00358197 0)
(1.00533 0.00350949 0)
(1.00601 0.0032895 0)
(1.0068 0.00299094 0)
(1.00766 0.00266812 0)
(1.00868 0.00233455 0)
(1.00987 0.00195345 0)
(1.01116 0.00153445 0)
(1.01229 0.00112236 0)
(1.01302 0.000756298 0)
(1.01302 0.000454372 0)
(1.00003 0.000289222 0)
(1.0002 0.000794471 0)
(1.00082 0.00154682 0)
(1.00187 0.00221005 0)
(1.00295 0.0025115 0)
(1.00358 0.00282219 0)
(1.00392 0.00329897 0)
(1.0042 0.00364848 0)
(1.00444 0.00380665 0)
(1.00469 0.00382467 0)
(1.00511 0.00373125 0)
(1.00573 0.00347696 0)
(1.00648 0.00312374 0)
(1.00731 0.00271057 0)
(1.00829 0.00227349 0)
(1.00943 0.0017836 0)
(1.01068 0.00126123 0)
(1.01181 0.000735707 0)
(1.01256 0.000264358 0)
(1.0126 -0.000141281 0)