/*--------------------------------*- C++ -*----------------------------------*\
| =========                 |                                                 |
| \\      /  F ield         | OpenFOAM: The Open Source CFD Toolbox           |
|  \\    /   O peration     | Version:  v2012                                 |
|   \\  /    A nd           | Website:  www.openfoam.com                      |
|    \\/     M anipulation  |                                                 |
\*---------------------------------------------------------------------------*/
FoamFile
{
    version     2.0;
    format      ascii;
    class       volVectorField;
    location    "0.9";
    object      U;
}
// * * * * * * * * * * * * * * * * * * * * * * * * * * * * * * * * * * * * * //

dimensions      [0 1 -1 0 0 0 0];


internalField   nonuniform List<vector> 
17600
(
(0.842191 0.00248787 0)
(1.14768 -0.00555874 0)
(0.854942 0.00822636 0)
(1.14331 -0.00501044 0)
(0.840569 0.00411285 0)
(1.13196 -0.000897747 0)
(0.835969 0.000287444 0)
(1.11961 0.000991323 0)
(0.839371 0.000489998 0)
(1.10967 -0.000439072 0)
(0.842023 0.000569158 0)
(1.1018 -0.00115665 0)
(0.844949 0.000273753 0)
(1.09635 -0.00109416 0)
(0.846416 0.000944023 0)
(1.09375 -0.000233719 0)
(0.844309 0.00213532 0)
(1.09254 0.000301578 0)
(0.835099 0.00344062 0)
(1.09078 0.000847587 0)
(0.851587 0.00247188 0)
(1.13534 -0.0054517 0)
(0.862406 0.00807031 0)
(1.12771 -0.0046835 0)
(0.850049 0.00401271 0)
(1.11371 -0.000643701 0)
(0.850993 0.000200153 0)
(1.09915 0.00117921 0)
(0.860779 0.000362496 0)
(1.08553 -0.00023092 0)
(0.869752 0.000416969 0)
(1.0719 -0.000970237 0)
(0.880889 0.000104002 0)
(1.05759 -0.000918446 0)
(0.894747 0.000844726 0)
(1.04042 -6.99666e-05 0)
(0.912761 0.00239977 0)
(1.01534 0.000162316 0)
(0.935111 0.00482564 0)
(0.975787 -2.04643e-05 0)
(0.870067 0.0024819 0)
(1.11391 -0.00534567 0)
(0.878115 0.00793141 0)
(1.10361 -0.00437667 0)
(0.870396 0.00392888 0)
(1.08407 -0.000459918 0)
(0.879578 0.000170055 0)
(1.06516 0.00124007 0)
(0.895847 0.000358932 0)
(1.04863 -0.000188754 0)
(0.910372 0.00044741 0)
(1.03164 -0.000986685 0)
(0.926218 0.000214755 0)
(1.01425 -0.00105747 0)
(0.942372 0.00107928 0)
(0.997025 -0.000411773 0)
(0.957462 0.00274768 0)
(0.980217 -0.000110788 0)
(0.966775 0.00520013 0)
(0.965252 0.000899315 0)
(0.894989 0.00252626 0)
(1.08747 -0.00525234 0)
(0.899755 0.00786402 0)
(1.07674 -0.00417161 0)
(0.898037 0.00395528 0)
(1.05234 -0.000433466 0)
(0.91385 0.000260443 0)
(1.03077 0.00114097 0)
(0.931336 0.000468799 0)
(1.01608 -0.000312302 0)
(0.94516 0.000607622 0)
(1.00263 -0.00115697 0)
(0.957713 0.000430528 0)
(0.990863 -0.00128233 0)
(0.966946 0.00132411 0)
(0.982392 -0.000653076 0)
(0.972488 0.00298438 0)
(0.976785 -0.000175936 0)
(0.972456 0.00533156 0)
(0.971744 0.00190946 0)
(0.922231 0.00259297 0)
(1.06087 -0.00516015 0)
(0.923419 0.0078304 0)
(1.0521 -0.00405544 0)
(0.926817 0.00407696 0)
(1.02657 -0.000514059 0)
(0.944763 0.000430165 0)
(1.00659 0.000991859 0)
(0.958299 0.000593367 0)
(0.997663 -0.000456677 0)
(0.967365 0.000741784 0)
(0.990818 -0.00130221 0)
(0.974333 0.000572233 0)
(0.985383 -0.0013985 0)
(0.977578 0.00144946 0)
(0.982248 -0.000728941 0)
(0.978568 0.00308451 0)
(0.979987 -9.08567e-05 0)
(0.976727 0.00542476 0)
(0.975878 0.00284569 0)
(0.94755 0.00266565 0)
(1.03833 -0.0050648 0)
(0.945321 0.00780071 0)
(1.03307 -0.00400369 0)
(0.951535 0.00423412 0)
(1.01053 -0.000633636 0)
(0.967533 0.000608424 0)
(0.995265 0.000869687 0)
(0.975606 0.000670501 0)
(0.992112 -0.000556487 0)
(0.980201 0.000804653 0)
(0.990118 -0.00138266 0)
(0.983535 0.000639884 0)
(0.987797 -0.0014337 0)
(0.984096 0.00150692 0)
(0.986075 -0.000739324 0)
(0.983698 0.00312446 0)
(0.984109 5.0422e-05 0)
(0.981553 0.00547963 0)
(0.980134 0.00369738 0)
(0.967931 0.00272748 0)
(1.02206 -0.00496465 0)
(0.963099 0.00776095 0)
(1.02049 -0.00398987 0)
(0.969871 0.00437453 0)
(1.00322 -0.00074471 0)
(0.982196 0.000750342 0)
(0.993068 0.000789443 0)
(0.986231 0.000699485 0)
(0.993349 -0.000620558 0)
(0.988299 0.000822621 0)
(0.993529 -0.00142821 0)
(0.990006 0.000676921 0)
(0.992141 -0.00143684 0)
(0.989586 0.00154036 0)
(0.990549 -0.000710478 0)
(0.988605 0.00312279 0)
(0.988471 0.000269992 0)
(0.986203 0.00546725 0)
(0.984696 0.00451837 0)
(0.98228 0.00276693 0)
(1.01192 -0.00486131 0)
(0.976163 0.00770527 0)
(1.0132 -0.00399067 0)
(0.982101 0.00447178 0)
(1.00126 -0.00082901 0)
(0.991041 0.000846667 0)
(0.99495 0.000737235 0)
(0.993067 0.000703253 0)
(0.996552 -0.000668786 0)
(0.994038 0.000823899 0)
(0.997375 -0.00145865 0)
(0.995048 0.000705213 0)
(0.996202 -0.00142284 0)
(0.994225 0.00156374 0)
(0.99459 -0.000642824 0)
(0.992899 0.00308438 0)
(0.992431 0.000572074 0)
(0.99033 0.00539869 0)
(0.988846 0.00530522 0)
(0.991209 0.00278159 0)
(1.00626 -0.00476052 0)
(0.985157 0.00763481 0)
(1.00928 -0.00399011 0)
(0.989733 0.00452227 0)
(1.00151 -0.000886743 0)
(0.996328 0.000906665 0)
(0.997639 0.000697737 0)
(0.997665 0.000698137 0)
(0.999513 -0.000709127 0)
(0.998163 0.000819779 0)
(1.00043 -0.00147845 0)
(0.998813 0.000727018 0)
(0.999343 -0.00139126 0)
(0.997823 0.00157279 0)
(0.997783 -0.000536367 0)
(0.996321 0.00301218 0)
(0.99562 0.000939508 0)
(0.993704 0.00529918 0)
(0.992252 0.00603314 0)
(0.996207 0.00277673 0)
(1.00323 -0.00466852 0)
(0.991131 0.00755415 0)
(1.00716 -0.0039796 0)
(0.99434 0.00453388 0)
(1.00223 -0.000923327 0)
(0.999517 0.000941545 0)
(0.999829 0.000662161 0)
(1.00072 0.000690729 0)
(1.00165 -0.000743203 0)
(1.00096 0.000812485 0)
(1.00252 -0.00148669 0)
(1.0014 0.000738147 0)
(1.00153 -0.00133887 0)
(1.00038 0.00155657 0)
(1.00009 -0.000392249 0)
(0.998834 0.00290951 0)
(0.997999 0.00135102 0)
(0.996273 0.00519506 0)
(0.994886 0.00667588 0)
(0.998798 0.00276024 0)
(1.00153 -0.00458817 0)
(0.995011 0.00746654 0)
(1.00595 -0.00395577 0)
(0.997079 0.00451624 0)
(1.00279 -0.000943111 0)
(1.00142 0.000957523 0)
(1.00129 0.000629366 0)
(1.00264 0.000681371 0)
(1.00299 -0.000770272 0)
(1.00271 0.000800621 0)
(1.0038 -0.00148228 0)
(1.00303 0.000733058 0)
(1.00293 -0.00126466 0)
(1.00206 0.00150833 0)
(1.00165 -0.000217852 0)
(1.00056 0.00277953 0)
(0.999683 0.00178301 0)
(0.998139 0.00511319 0)
(0.99685 0.00721256 0)
(1.00009 0.00273834 0)
(1.0005 -0.00451815 0)
(0.997457 0.00737259 0)
(1.00521 -0.00391827 0)
(0.998681 0.00447651 0)
(1.00311 -0.00094865 0)
(1.00252 0.00095776 0)
(1.00215 0.000600721 0)
(1.00375 0.00066755 0)
(1.00377 -0.000788794 0)
(1.0037 0.000780553 0)
(1.00453 -0.00146294 0)
(1.00397 0.000706403 0)
(1.00376 -0.00116853 0)
(1.00308 0.00142511 0)
(1.00265 -6.5123e-06 0)
(1.00169 0.0026351 0)
(1.00082 0.0022086 0)
(0.999458 0.00507784 0)
(0.998284 0.00763385 0)
(1.00073 0.00271414 0)
(0.999871 -0.0044547 0)
(0.998929 0.00727145 0)
(1.00476 -0.00386812 0)
(0.999593 0.00441904 0)
(1.00326 -0.00094102 0)
(1.00312 0.000943614 0)
(1.00262 0.000578637 0)
(1.00434 0.000645975 0)
(1.00417 -0.000797109 0)
(1.00421 0.000747977 0)
(1.00489 -0.00142589 0)
(1.00446 0.000655071 0)
(1.00423 -0.00105121 0)
(1.00367 0.0013115 0)
(1.00325 0.000232271 0)
(1.0024 0.002496 0)
(1.00158 0.00260221 0)
(1.00038 0.00510381 0)
(0.999328 0.00794554 0)
(1.00104 0.00268835 0)
(0.999518 -0.00439357 0)
(0.99976 0.0071621 0)
(1.0045 -0.00380659 0)
(1.00009 0.00434626 0)
(1.00331 -0.000920551 0)
(1.00343 0.000915729 0)
(1.00285 0.000564926 0)
(1.00462 0.000615216 0)
(1.00436 -0.000792847 0)
(1.00444 0.000700403 0)
(1.00506 -0.0013706 0)
(1.0047 0.000580072 0)
(1.00446 -0.000915201 0)
(1.004 0.00117725 0)
(1.0036 0.000470865 0)
(1.00285 0.00238224 0)
(1.00208 0.00294616 0)
(1.00103 0.00519203 0)
(1.0001 0.00816655 0)
(1.00119 0.0026606 0)
(0.999351 -0.00433116 0)
(1.0002 0.00704379 0)
(1.00436 -0.00373446 0)
(1.00036 0.00425909 0)
(1.00331 -0.000886928 0)
(1.00359 0.000873705 0)
(1.00296 0.000562075 0)
(1.00473 0.000572356 0)
(1.00445 -0.000773614 0)
(1.00453 0.000636264 0)
(1.00512 -0.00129715 0)
(1.0048 0.000483319 0)
(1.00458 -0.000764487 0)
(1.00418 0.00103289 0)
(1.0038 0.000697786 0)
(1.00313 0.00230964 0)
(1.00242 0.0032378 0)
(1.00152 0.00533284 0)
(1.0007 0.00832315 0)
(1.00124 0.00263027 0)
(0.9993 -0.00426475 0)
(1.00041 0.00691583 0)
(1.00427 -0.00365174 0)
(1.0005 0.00415745 0)
(1.00329 -0.000839494 0)
(1.00367 0.000816426 0)
(1.00301 0.000572401 0)
(1.00476 0.000514136 0)
(1.00448 -0.000737852 0)
(1.00455 0.000553755 0)
(1.00514 -0.00120376 0)
(1.00485 0.000366745 0)
(1.00464 -0.000606363 0)
(1.00429 0.000895507 0)
(1.00394 0.000899825 0)
(1.00334 0.0022828 0)
(1.00268 0.00348539 0)
(1.0019 0.00550866 0)
(1.00119 0.00844007 0)
(1.00124 0.00259676 0)
(0.999311 -0.00419232 0)
(1.0005 0.00677746 0)
(1.00422 -0.0035581 0)
(1.00058 0.00404099 0)
(1.00324 -0.000777504 0)
(1.00372 0.000742343 0)
(1.00302 0.000598168 0)
(1.00474 0.000437742 0)
(1.00449 -0.000684937 0)
(1.00454 0.000455052 0)
(1.00514 -0.00109535 0)
(1.00488 0.000241941 0)
(1.00468 -0.000451734 0)
(1.00437 0.000779704 0)
(1.00403 0.00106638 0)
(1.0035 0.00229819 0)
(1.0029 0.00369669 0)
(1.00224 0.00569751 0)
(1.00161 0.00853276 0)
(1.00123 0.00255959 0)
(0.999353 -0.00411238 0)
(1.00054 0.00662784 0)
(1.00417 -0.00345295 0)
(1.00063 0.00390861 0)
(1.00318 -0.000698871 0)
(1.00374 0.0006487 0)
(1.00302 0.000641882 0)
(1.00472 0.00034269 0)
(1.00449 -0.000615832 0)
(1.00453 0.000340405 0)
(1.00514 -0.000979865 0)
(1.0049 0.000116965 0)
(1.00471 -0.000308671 0)
(1.00444 0.000698729 0)
(1.00412 0.00120072 0)
(1.00365 0.00235162 0)
(1.00312 0.00388255 0)
(1.00255 0.00588555 0)
(1.00201 0.00860985 0)
(1.0012 0.00251846 0)
(0.99941 -0.00402392 0)
(1.00055 0.00646606 0)
(1.00413 -0.0033353 0)
(1.00068 0.0037586 0)
(1.00312 -0.000601998 0)
(1.00377 0.000535198 0)
(1.00301 0.000701618 0)
(1.00468 0.000231309 0)
(1.00449 -0.000538719 0)
(1.00451 0.000217245 0)
(1.00513 -0.000863799 0)
(1.00492 5.88056e-06 0)
(1.00473 -0.000188595 0)
(1.00451 0.000651912 0)
(1.00421 0.00130933 0)
(1.00381 0.00243339 0)
(1.00334 0.00405522 0)
(1.00285 0.00606918 0)
(1.00239 0.00867793 0)
(1.00118 0.00247302 0)
(0.999473 -0.00392585 0)
(1.00056 0.00629107 0)
(1.00409 -0.00320377 0)
(1.00071 0.00358939 0)
(1.00305 -0.000486089 0)
(1.00379 0.000401348 0)
(1.00299 0.000777503 0)
(1.00464 0.000102107 0)
(1.00449 -0.000453549 0)
(1.00449 8.58933e-05 0)
(1.00512 -0.000760425 0)
(1.00494 -8.90527e-05 0)
(1.00477 -0.000103546 0)
(1.00458 0.000626968 0)
(1.00431 0.0013954 0)
(1.00396 0.0025244 0)
(1.00356 0.00421796 0)
(1.00316 0.00624617 0)
(1.00276 0.00874128 0)
(1.00114 0.00242289 0)
(0.999538 -0.003817 0)
(1.00055 0.00610128 0)
(1.00405 -0.00305645 0)
(1.00075 0.00339949 0)
(1.00297 -0.000350074 0)
(1.00381 0.000245909 0)
(1.00297 0.000868628 0)
(1.0046 -3.963e-05 0)
(1.00448 -0.000365213 0)
(1.00448 -4.73239e-05 0)
(1.00511 -0.000680306 0)
(1.00497 -0.000167273 0)
(1.0048 -4.92047e-05 0)
(1.00466 0.000622032 0)
(1.00441 0.0014734 0)
(1.00413 0.00261523 0)
(1.0038 0.00436914 0)
(1.00347 0.00641604 0)
(1.00313 0.00880494 0)
(1.00111 0.00236786 0)
(0.999604 -0.00369626 0)
(1.00055 0.005895 0)
(1.004 -0.00289201 0)
(1.00079 0.00318797 0)
(1.00289 -0.000193398 0)
(1.00383 7.02722e-05 0)
(1.00295 0.000971328 0)
(1.00455 -0.000187345 0)
(1.00447 -0.000286859 0)
(1.00446 -0.000159649 0)
(1.00511 -0.000632856 0)
(1.00499 -0.000215536 0)
(1.00484 -2.10753e-05 0)
(1.00474 0.000631751 0)
(1.00453 0.00155391 0)
(1.00431 0.00270834 0)
(1.00406 0.00450514 0)
(1.00378 0.0065783 0)
(1.00349 0.0088744 0)
(1.00108 0.00230761 0)
(0.999669 -0.00356277 0)
(1.00055 0.00567128 0)
(1.00396 -0.00270998 0)
(1.00084 0.00295499 0)
(1.00281 -1.92218e-05 0)
(1.00385 -0.000115285 0)
(1.00293 0.00107998 0)
(1.0045 -0.000332676 0)
(1.00447 -0.000225192 0)
(1.00444 -0.00023776 0)
(1.00511 -0.000623436 0)
(1.00502 -0.000239183 0)
(1.00488 -1.5779e-05 0)
(1.00482 0.00064156 0)
(1.00466 0.00163694 0)
(1.00451 0.00280843 0)
(1.00433 0.00462101 0)
(1.00411 0.00672689 0)
(1.00386 0.00895034 0)
(1.00105 0.00224202 0)
(0.999734 -0.00341534 0)
(1.00055 0.00542857 0)
(1.0039 -0.00250957 0)
(1.00088 0.0027006 0)
(1.00272 0.000169562 0)
(1.00387 -0.000313583 0)
(1.00291 0.00118248 0)
(1.00445 -0.000462317 0)
(1.00447 -0.000193434 0)
(1.00442 -0.000276136 0)
(1.0051 -0.00064833 0)
(1.00505 -0.000242492 0)
(1.00493 -1.63387e-05 0)
(1.00492 0.000642832 0)
(1.00479 0.00172465 0)
(1.00471 0.0029232 0)
(1.00461 0.00472045 0)
(1.00445 0.00685446 0)
(1.00422 0.00903081 0)
(1.00101 0.00217075 0)
(0.999798 -0.00325203 0)
(1.00055 0.00516479 0)
(1.00385 -0.00229035 0)
(1.00093 0.00242609 0)
(1.00264 0.000370209 0)
(1.00389 -0.000521353 0)
(1.00289 0.00127021 0)
(1.0044 -0.000566639 0)
(1.00447 -0.000204307 0)
(1.00439 -0.000280224 0)
(1.0051 -0.000701814 0)
(1.00508 -0.000240579 0)
(1.00498 -4.4585e-06 0)
(1.00503 0.000634307 0)
(1.00494 0.00181278 0)
(1.00492 0.00305555 0)
(1.00491 0.00481297 0)
(1.0048 0.00695322 0)
(1.00459 0.00910936 0)
(1.00098 0.00209313 0)
(0.999859 -0.0030719 0)
(1.00055 0.00488071 0)
(1.00379 -0.00205607 0)
(1.00098 0.00213615 0)
(1.00254 0.00057679 0)
(1.0039 -0.000720248 0)
(1.00288 0.00133799 0)
(1.00433 -0.000635843 0)
(1.00447 -0.000260387 0)
(1.00436 -0.00025716 0)
(1.0051 -0.00076852 0)
(1.00511 -0.000250307 0)
(1.00503 3.58496e-05 0)
(1.00514 0.000630871 0)
(1.00511 0.00189868 0)
(1.00514 0.00320628 0)
(1.00522 0.00491111 0)
(1.00517 0.00702084 0)
(1.00497 0.00917463 0)
(1.00094 0.00201036 0)
(0.999917 -0.00287766 0)
(1.00055 0.00457937 0)
(1.00372 -0.00181073 0)
(1.00103 0.00183563 0)
(1.00245 0.000777849 0)
(1.00392 -0.000902802 0)
(1.00286 0.00137156 0)
(1.00426 -0.000655773 0)
(1.00448 -0.000356212 0)
(1.00433 -0.000217567 0)
(1.0051 -0.000827395 0)
(1.00516 -0.000278455 0)
(1.00508 0.000110631 0)
(1.00527 0.000655231 0)
(1.0053 0.00198643 0)
(1.00537 0.00337327 0)
(1.00553 0.00502457 0)
(1.00555 0.00706308 0)
(1.00536 0.009213 0)
(1.00091 0.00192249 0)
(0.999971 -0.00266955 0)
(1.00056 0.00426222 0)
(1.00365 -0.001555 0)
(1.00109 0.00153009 0)
(1.00235 0.000966258 0)
(1.00393 -0.00106189 0)
(1.00286 0.00135571 0)
(1.00418 -0.000629653 0)
(1.00449 -0.000484279 0)
(1.0043 -0.000173887 0)
(1.00509 -0.000861575 0)
(1.00521 -0.000319825 0)
(1.00514 0.000219814 0)
(1.00539 0.000726031 0)
(1.0055 0.00208187 0)
(1.00561 0.00355005 0)
(1.00584 0.00515491 0)
(1.00594 0.00709067 0)
(1.00576 0.00921371 0)
(1.00087 0.00182867 0)
(1.00002 -0.00244402 0)
(1.00056 0.00392963 0)
(1.00358 -0.00129546 0)
(1.00114 0.00123013 0)
(1.00225 0.00113856 0)
(1.00393 -0.00118323 0)
(1.00285 0.00128987 0)
(1.00409 -0.000566815 0)
(1.0045 -0.000631555 0)
(1.00428 -0.000134967 0)
(1.00508 -0.00086657 0)
(1.00527 -0.000351411 0)
(1.00521 0.000359077 0)
(1.00552 0.000854268 0)
(1.00572 0.00218803 0)
(1.00587 0.00372818 0)
(1.00616 0.00529616 0)
(1.00633 0.00711442 0)
(1.00618 0.00917509 0)
(1.00083 0.00172911 0)
(1.00006 -0.00220275 0)
(1.00057 0.00358543 0)
(1.0035 -0.00104182 0)
(1.0012 0.000949759 0)
(1.00216 0.00127409 0)
(1.00392 -0.00125815 0)
(1.00286 0.00118124 0)
(1.00399 -0.000478498 0)
(1.00451 -0.000780286 0)
(1.00426 -0.000106685 0)
(1.00506 -0.000826952 0)
(1.00535 -0.000359554 0)
(1.00529 0.000513357 0)
(1.00566 0.00103241 0)
(1.00595 0.00229889 0)
(1.00614 0.00389404 0)
(1.00647 0.00543787 0)
(1.00672 0.00714066 0)
(1.0066 0.00910474 0)
(1.0008 0.00162582 0)
(1.0001 -0.00195289 0)
(1.00057 0.00324 0)
(1.00341 -0.000806138 0)
(1.00125 0.000698373 0)
(1.00206 0.00136437 0)
(1.0039 -0.00129166 0)
(1.00287 0.00103414 0)
(1.00389 -0.000380531 0)
(1.00451 -0.000912694 0)
(1.00424 -8.87456e-05 0)
(1.00504 -0.000730979 0)
(1.00543 -0.000335067 0)
(1.00539 0.000680506 0)
(1.00579 0.00125019 0)
(1.00618 0.00241317 0)
(1.00642 0.0040304 0)
(1.00678 0.00556721 0)
(1.00711 0.00716469 0)
(1.00703 0.0090057 0)
(1.00076 0.00152055 0)
(1.00013 -0.00170151 0)
(1.00058 0.00290576 0)
(1.00332 -0.000597918 0)
(1.0013 0.000481062 0)
(1.00196 0.00141645 0)
(1.00387 -0.00128477 0)
(1.00288 0.000867252 0)
(1.00378 -0.000271541 0)
(1.00451 -0.00101366 0)
(1.00424 -7.71739e-05 0)
(1.00502 -0.000582117 0)
(1.00552 -0.000273469 0)
(1.0055 0.000852271 0)
(1.00592 0.00148974 0)
(1.00642 0.0025329 0)
(1.00672 0.00412362 0)
(1.0071 0.00567263 0)
(1.00748 0.0071795 0)
(1.00746 0.00888071 0)
(1.00072 0.0014134 0)
(1.00015 -0.00144864 0)
(1.00058 0.00258876 0)
(1.00323 -0.000423494 0)
(1.00135 0.00029911 0)
(1.00187 0.00142686 0)
(1.00382 -0.00125384 0)
(1.0029 0.000693525 0)
(1.00366 -0.000160759 0)
(1.0045 -0.00107467 0)
(1.00426 -6.60815e-05 0)
(1.00499 -0.000382788 0)
(1.00562 -0.000177241 0)
(1.00564 0.00101143 0)
(1.00605 0.00173558 0)
(1.00665 0.00266428 0)
(1.00703 0.00418005 0)
(1.00742 0.00574834 0)
(1.00784 0.00718544 0)
(1.00787 0.00874153 0)
(1.00069 0.00130423 0)
(1.00016 -0.00119591 0)
(1.00057 0.00230488 0)
(1.00313 -0.000286907 0)
(1.00139 0.000147184 0)
(1.00177 0.00140457 0)
(1.00377 -0.00120306 0)
(1.00292 0.000515743 0)
(1.00355 -4.9122e-05 0)
(1.00449 -0.00109164 0)
(1.00428 -4.86668e-05 0)
(1.00497 -0.000146199 0)
(1.00571 -5.29996e-05 0)
(1.00578 0.00114424 0)
(1.00619 0.00197498 0)
(1.00687 0.00280809 0)
(1.00734 0.00421153 0)
(1.00776 0.00578512 0)
(1.00819 0.00717645 0)
(1.00826 0.00859575 0)
(1.00065 0.00119684 0)
(1.00016 -0.000955349 0)
(1.00057 0.00206259 0)
(1.00304 -0.000185551 0)
(1.00143 1.99489e-05 0)
(1.00168 0.00136212 0)
(1.0037 -0.00113091 0)
(1.00294 0.000347289 0)
(1.00344 5.90693e-05 0)
(1.00447 -0.00105984 0)
(1.00433 -2.61145e-05 0)
(1.00496 0.000103413 0)
(1.00579 9.59264e-05 0)
(1.00594 0.00124729 0)
(1.00633 0.00219573 0)
(1.00707 0.00296475 0)
(1.00765 0.00423399 0)
(1.0081 0.00578421 0)
(1.00854 0.0071489 0)
(1.00863 0.00845105 0)
(1.00062 0.00109208 0)
(1.00016 -0.000731894 0)
(1.00055 0.00185721 0)
(1.00293 -0.000116034 0)
(1.00146 -9.01821e-05 0)
(1.00159 0.00129727 0)
(1.00362 -0.00104911 0)
(1.00297 0.00018883 0)
(1.00333 0.000174362 0)
(1.00444 -0.000979088 0)
(1.00439 -1.46646e-06 0)
(1.00495 0.000343733 0)
(1.00586 0.000274722 0)
(1.00611 0.0013284 0)
(1.00648 0.00238361 0)
(1.00726 0.00312885 0)
(1.00795 0.00425925 0)
(1.00844 0.00575132 0)
(1.00888 0.00709736 0)
(1.00898 0.00830708 0)
(1.00058 0.000991802 0)
(1.00015 -0.000533811 0)
(1.00053 0.00169094 0)
(1.00283 -6.56558e-05 0)
(1.00148 -0.000185585 0)
(1.00151 0.00121773 0)
(1.00353 -0.000958927 0)
(1.003 4.62525e-05 0)
(1.00323 0.000296061 0)
(1.0044 -0.000850705 0)
(1.00446 3.00877e-05 0)
(1.00496 0.000567666 0)
(1.00592 0.000477177 0)
(1.00629 0.00139662 0)
(1.00665 0.00252471 0)
(1.00745 0.00328788 0)
(1.00824 0.00428915 0)
(1.00879 0.00569048 0)
(1.00922 0.00701481 0)
(1.00932 0.00815732 0)
(1.00055 0.00089536 0)
(1.00014 -0.000356989 0)
(1.0005 0.00155919 0)
(1.00271 -2.06552e-05 0)
(1.0015 -0.000267677 0)
(1.00143 0.00112892 0)
(1.00344 -0.000859813 0)
(1.00304 -6.77042e-05 0)
(1.00315 0.000407801 0)
(1.00435 -0.000675083 0)
(1.00454 7.1995e-05 0)
(1.00497 0.000773747 0)
(1.00597 0.000696546 0)
(1.00647 0.00146641 0)
(1.00684 0.00262031 0)
(1.00763 0.00343209 0)
(1.00851 0.00432412 0)
(1.00914 0.00560922 0)
(1.00957 0.00689981 0)
(1.00964 0.00799588 0)
(1.00051 0.00080481 0)
(1.00013 -0.000204928 0)
(1.00046 0.00145509 0)
(1.0026 2.48144e-05 0)
(1.00151 -0.000336612 0)
(1.00135 0.00103113 0)
(1.00334 -0.000756147 0)
(1.00308 -0.000148066 0)
(1.00307 0.000519807 0)
(1.0043 -0.000462176 0)
(1.00463 0.000122254 0)
(1.005 0.000957888 0)
(1.00601 0.000929969 0)
(1.00663 0.00154661 0)
(1.00704 0.00267873 0)
(1.00781 0.00355017 0)
(1.00876 0.00436106 0)
(1.00948 0.00551433 0)
(1.00991 0.00675294 0)
(1.00995 0.00781604 0)
(1.00048 0.000722426 0)
(1.00011 -8.63748e-05 0)
(1.00042 0.00137315 0)
(1.00248 7.17254e-05 0)
(1.00152 -0.000382742 0)
(1.00128 0.000932191 0)
(1.00323 -0.000652503 0)
(1.00312 -0.000201285 0)
(1.00302 0.000629915 0)
(1.00424 -0.000224448 0)
(1.00471 0.000185054 0)
(1.00505 0.00111118 0)
(1.00604 0.00116877 0)
(1.00679 0.00163987 0)
(1.00725 0.00270908 0)
(1.008 0.00363391 0)
(1.009 0.00439486 0)
(1.0098 0.00541173 0)
(1.01026 0.00657556 0)
(1.01026 0.00761031 0)
(1.00045 0.000644727 0)
(1.0001 1.08799e-05 0)
(1.00038 0.00130709 0)
(1.00235 0.000123026 0)
(1.00152 -0.000402985 0)
(1.00122 0.000842145 0)
(1.00313 -0.000547265 0)
(1.00317 -0.000234687 0)
(1.00299 0.000732236 0)
(1.00417 2.75392e-05 0)
(1.0048 0.000265173 0)
(1.00512 0.00123019 0)
(1.00607 0.00140484 0)
(1.00693 0.00175368 0)
(1.00747 0.00272409 0)
(1.00821 0.00368176 0)
(1.00923 0.00441997 0)
(1.01011 0.00530718 0)
(1.0106 0.00637118 0)
(1.01057 0.00737077 0)
(1.00042 0.000574746 0)
(1.00008 8.88351e-05 0)
(1.00034 0.00125124 0)
(1.00222 0.000179231 0)
(1.00151 -0.000394027 0)
(1.00116 0.000774756 0)
(1.00302 -0.000434372 0)
(1.00322 -0.000241889 0)
(1.00298 0.000822842 0)
(1.0041 0.000286276 0)
(1.00487 0.000367982 0)
(1.00521 0.00132362 0)
(1.0061 0.00162888 0)
(1.00705 0.00189389 0)
(1.00768 0.00273969 0)
(1.00842 0.00370071 0)
(1.00944 0.00443605 0)
(1.01039 0.00521269 0)
(1.01094 0.00615686 0)
(1.01089 0.00710284 0)
(1.00039 0.000509168 0)
(1.00007 0.000150207 0)
(1.00029 0.00120558 0)
(1.0021 0.000235795 0)
(1.0015 -0.000358212 0)
(1.00111 0.000739869 0)
(1.00292 -0.000305767 0)
(1.00327 -0.00023002 0)
(1.00298 0.000890108 0)
(1.00403 0.00053909 0)
(1.00493 0.000489457 0)
(1.00531 0.00139413 0)
(1.00614 0.00182306 0)
(1.00715 0.00204974 0)
(1.00789 0.00276326 0)
(1.00864 0.00369657 0)
(1.00965 0.00443909 0)
(1.01064 0.00513254 0)
(1.01125 0.00594986 0)
(1.0112 0.00681794 0)
(1.00036 0.000451802 0)
(1.00005 0.000190409 0)
(1.00024 0.00116965 0)
(1.00197 0.000287938 0)
(1.00149 -0.00029851 0)
(1.00107 0.00073943 0)
(1.00281 -0.000154596 0)
(1.00333 -0.000201325 0)
(1.00302 0.000932228 0)
(1.00396 0.000772044 0)
(1.00498 0.000626724 0)
(1.00543 0.00144286 0)
(1.00619 0.00197775 0)
(1.00724 0.00220383 0)
(1.00808 0.00279532 0)
(1.00887 0.00367389 0)
(1.00986 0.00442221 0)
(1.01087 0.00505974 0)
(1.01154 0.00575777 0)
(1.01151 0.00652744 0)
(1.00033 0.00040483 0)
(1.00004 0.000210834 0)
(1.0002 0.00113673 0)
(1.00184 0.000340532 0)
(1.00148 -0.000224152 0)
(1.00103 0.00076458 0)
(1.0027 2.51784e-05 0)
(1.00337 -0.000147086 0)
(1.00307 0.000959288 0)
(1.0039 0.000981257 0)
(1.00501 0.000780785 0)
(1.00555 0.00147833 0)
(1.00626 0.0020924 0)
(1.00731 0.00234404 0)
(1.00826 0.00283315 0)
(1.00909 0.00363714 0)
(1.01007 0.00438083 0)
(1.01109 0.00498409 0)
(1.01179 0.00558064 0)
(1.01179 0.00624274 0)
(1.0003 0.000361915 0)
(1.00003 0.000225364 0)
(1.00016 0.00110178 0)
(1.00172 0.000401083 0)
(1.00147 -0.000144626 0)
(1.00101 0.000807321 0)
(1.00259 0.00022662 0)
(1.00341 -6.05823e-05 0)
(1.00314 0.000978688 0)
(1.00386 0.00117037 0)
(1.00503 0.000947113 0)
(1.00568 0.00151335 0)
(1.00635 0.00217023 0)
(1.00739 0.00246534 0)
(1.00842 0.00287113 0)
(1.00932 0.0035869 0)
(1.01028 0.00431065 0)
(1.01129 0.00489362 0)
(1.01202 0.00541095 0)
(1.01204 0.00596815 0)
(1.00028 0.000322957 0)
(1.00003 0.000237059 0)
(1.00012 0.00106773 0)
(1.0016 0.000467815 0)
(1.00145 -5.27435e-05 0)
(1.00099 0.000865026 0)
(1.00248 0.000439414 0)
(1.00344 6.96611e-05 0)
(1.00322 0.0010017 0)
(1.00383 0.00133901 0)
(1.00504 0.00112332 0)
(1.00579 0.00155941 0)
(1.00646 0.00222213 0)
(1.00747 0.00256646 0)
(1.00857 0.00290509 0)
(1.00954 0.00352352 0)
(1.0105 0.00421157 0)
(1.01148 0.00478165 0)
(1.01222 0.00524296 0)
(1.01227 0.00570675 0)
(1.00025 0.000290543 0)
(1.00003 0.000240688 0)
(1.00009 0.00103797 0)
(1.00149 0.000536459 0)
(1.00144 5.15228e-05 0)
(1.00099 0.000937373 0)
(1.00238 0.000661047 0)
(1.00345 0.000241418 0)
(1.00331 0.00104144 0)
(1.00381 0.00148117 0)
(1.00503 0.00130769 0)
(1.0059 0.00162404 0)
(1.00657 0.00226197 0)
(1.00754 0.00264838 0)
(1.00869 0.0029344 0)
(1.00974 0.00344955 0)
(1.01072 0.00408572 0)
(1.01167 0.00464406 0)
(1.01239 0.00507049 0)
(1.01245 0.00545782 0)
(1.00023 0.000267587 0)
(1.00003 0.000234294 0)
(1.00006 0.00100968 0)
(1.00138 0.000608138 0)
(1.00144 0.000159302 0)
(1.001 0.00101052 0)
(1.00228 0.000886913 0)
(1.00344 0.000446445 0)
(1.00341 0.00110763 0)
(1.00382 0.00160568 0)
(1.00502 0.00148964 0)
(1.006 0.00170614 0)
(1.0067 0.00229291 0)
(1.00763 0.00270993 0)
(1.0088 0.00295813 0)
(1.00992 0.00336833 0)
(1.01094 0.00393487 0)
(1.01187 0.00447569 0)
(1.01256 0.00488392 0)
(1.01261 0.00521481 0)
(1.0002 0.000247312 0)
(1.00003 0.00023482 0)
(1.00004 0.000979216 0)
(1.00128 0.000684349 0)
(1.00143 0.000275577 0)
(1.00102 0.00108633 0)
(1.0022 0.00110975 0)
(1.00343 0.000679551 0)
(1.0035 0.00119901 0)
(1.00384 0.00172595 0)
(1.005 0.00166072 0)
(1.00608 0.00179816 0)
(1.00683 0.00231879 0)
(1.00771 0.00275572 0)
(1.00888 0.00298216 0)
(1.01008 0.0032892 0)
(1.01115 0.00376493 0)
(1.01206 0.0042723 0)
(1.01271 0.00467112 0)
(1.01275 0.00496672 0)
(1.00018 0.000228877 0)
(1.00003 0.000242823 0)
(1.00003 0.000957695 0)
(1.00119 0.00076474 0)
(1.00143 0.000405401 0)
(1.00106 0.00117484 0)
(1.00212 0.00132237 0)
(1.0034 0.000930703 0)
(1.00358 0.00132116 0)
(1.00387 0.00184517 0)
(1.00498 0.00182212 0)
(1.00614 0.00188939 0)
(1.00696 0.00234088 0)
(1.00781 0.00278904 0)
(1.00895 0.00301222 0)
(1.0102 0.00322586 0)
(1.01133 0.00359098 0)
(1.01226 0.00403912 0)
(1.01287 0.00442477 0)
(1.01287 0.00470243 0)
(1.00016 0.000218426 0)
(1.00004 0.000246946 0)
(1.00002 0.000944818 0)
(1.00111 0.000855667 0)
(1.00142 0.000545218 0)
(1.00111 0.00126585 0)
(1.00207 0.00152207 0)
(1.00336 0.00118347 0)
(1.00365 0.00147635 0)
(1.0039 0.00196883 0)
(1.00496 0.00197571 0)
(1.00619 0.00197772 0)
(1.00708 0.00235252 0)
(1.00791 0.00280282 0)
(1.00901 0.0030393 0)
(1.01028 0.00318241 0)
(1.01148 0.00342855 0)
(1.01244 0.00378895 0)
(1.01303 0.00414372 0)
(1.01298 0.00441065 0)
(1.00014 0.000211696 0)
(1.00004 0.000261739 0)
(1.00003 0.000929897 0)
(1.00104 0.000948126 0)
(1.00142 0.000702696 0)
(1.00116 0.00136095 0)
(1.00202 0.00170256 0)
(1.00332 0.00142912 0)
(1.00371 0.00164888 0)
(1.00394 0.00210889 0)
(1.00493 0.00213546 0)
(1.00622 0.00207524 0)
(1.0072 0.00235846 0)
(1.00802 0.00279274 0)
(1.00906 0.0030518 0)
(1.01033 0.00315527 0)
(1.01158 0.00329227 0)
(1.01259 0.00354325 0)
(1.01318 0.00383922 0)
(1.0131 0.00408685 0)
(1.00012 0.000206355 0)
(1.00005 0.000291491 0)
(1.00004 0.000927209 0)
(1.00098 0.00103392 0)
(1.00142 0.000875298 0)
(1.00122 0.0014757 0)
(1.002 0.00186244 0)
(1.00328 0.00166687 0)
(1.00377 0.00182898 0)
(1.00398 0.00226669 0)
(1.00489 0.00231534 0)
(1.00622 0.00219049 0)
(1.0073 0.00236283 0)
(1.00814 0.00275401 0)
(1.00912 0.00303497 0)
(1.01035 0.00312907 0)
(1.01163 0.00318395 0)
(1.0127 0.00332121 0)
(1.01331 0.00353187 0)
(1.0132 0.00373916 0)
(1.0001 0.000205227 0)
(1.00006 0.000328146 0)
(1.00005 0.000944688 0)
(1.00093 0.00111933 0)
(1.00142 0.00105157 0)
(1.00128 0.00161669 0)
(1.00198 0.00201594 0)
(1.00324 0.00188869 0)
(1.00381 0.00201314 0)
(1.00402 0.00243251 0)
(1.00485 0.00251377 0)
(1.00619 0.00233543 0)
(1.00737 0.00237741 0)
(1.00825 0.00269197 0)
(1.00918 0.00297889 0)
(1.01035 0.00308278 0)
(1.01164 0.00308668 0)
(1.01275 0.0031245 0)
(1.0134 0.00323597 0)
(1.01329 0.00338039 0)
(1.00009 0.000209288 0)
(1.00007 0.000369828 0)
(1.00007 0.000978625 0)
(1.00089 0.00120529 0)
(1.00143 0.00121986 0)
(1.00134 0.00177641 0)
(1.00197 0.00218147 0)
(1.0032 0.00209237 0)
(1.00385 0.0021936 0)
(1.00406 0.00259428 0)
(1.00479 0.00271869 0)
(1.00612 0.0025153 0)
(1.00739 0.00242527 0)
(1.00835 0.00262607 0)
(1.00925 0.00288708 0)
(1.01035 0.00300234 0)
(1.01161 0.00297904 0)
(1.01274 0.00293953 0)
(1.01343 0.00295254 0)
(1.01334 0.00301858 0)
(1.00007 0.000218188 0)
(1.00007 0.00041757 0)
(1.00009 0.00102622 0)
(1.00086 0.00129649 0)
(1.00144 0.001375 0)
(1.0014 0.00194327 0)
(1.00195 0.00236845 0)
(1.00316 0.00229263 0)
(1.00388 0.00236788 0)
(1.00411 0.00274977 0)
(1.00474 0.00292029 0)
(1.00601 0.0027227 0)
(1.00736 0.0025228 0)
(1.00841 0.00258336 0)
(1.00931 0.00277793 0)
(1.01035 0.00288671 0)
(1.01155 0.00284888 0)
(1.01267 0.00275036 0)
(1.0134 0.00267519 0)
(1.01334 0.00265547 0)
(1.00006 0.000230211 0)
(1.00008 0.000470814 0)
(1.0001 0.00108974 0)
(1.00084 0.00139826 0)
(1.00145 0.00152317 0)
(1.00146 0.00210235 0)
(1.00194 0.00257348 0)
(1.0031 0.00251153 0)
(1.0039 0.0025389 0)
(1.00416 0.00289826 0)
(1.0047 0.0031152 0)
(1.00588 0.00294555 0)
(1.00726 0.0026697 0)
(1.00841 0.00258652 0)
(1.00934 0.00267772 0)
(1.01033 0.00274901 0)
(1.01146 0.00269445 0)
(1.01256 0.00254941 0)
(1.01329 0.00239852 0)
(1.01327 0.0022937 0)
(1.00005 0.000247282 0)
(1.00009 0.000521955 0)
(1.00012 0.00116633 0)
(1.00081 0.00151437 0)
(1.00147 0.00166823 0)
(1.00153 0.00225137 0)
(1.00193 0.00278421 0)
(1.00302 0.00276368 0)
(1.0039 0.00272624 0)
(1.00421 0.00303706 0)
(1.00466 0.00329968 0)
(1.00572 0.00317329 0)
(1.00711 0.00285311 0)
(1.00833 0.0026411 0)
(1.00932 0.00260571 0)
(1.01028 0.00260604 0)
(1.01134 0.00251758 0)
(1.01239 0.00233027 0)
(1.01312 0.00211398 0)
(1.01312 0.00192952 0)
(1.00003 0.000269933 0)
(1.0001 0.00057303 0)
(1.00015 0.00124289 0)
(1.00079 0.00164841 0)
(1.00148 0.00181567 0)
(1.0016 0.00238956 0)
(1.00193 0.00298528 0)
(1.00294 0.00303745 0)
(1.00387 0.00295357 0)
(1.00425 0.00318414 0)
(1.00463 0.00347106 0)
(1.00556 0.0034016 0)
(1.0069 0.00306226 0)
(1.00818 0.00274267 0)
(1.00923 0.00257134 0)
(1.01017 0.00247158 0)
(1.01117 0.0023231 0)
(1.01216 0.00208656 0)
(1.01288 0.0018093 0)
(1.0129 0.00155026 0)
(1.00002 0.000292842 0)
(1.00011 0.000629341 0)
(1.00018 0.00131514 0)
(1.00077 0.00179087 0)
(1.00149 0.00198062 0)
(1.00168 0.00251855 0)
(1.00195 0.00316908 0)
(1.00285 0.00331861 0)
(1.0038 0.00322397 0)
(1.00427 0.00336881 0)
(1.00461 0.00364218 0)
(1.0054 0.0036322 0)
(1.00665 0.00329622 0)
(1.00794 0.00288971 0)
(1.00904 0.00258054 0)
(1.01 0.00235843 0)
(1.01095 0.00212082 0)
(1.01188 0.00182015 0)
(1.01256 0.00147564 0)
(1.01259 0.00113996 0)
(1.00001 0.000316438 0)
(1.00012 0.000692361 0)
(1.00022 0.00138549 0)
(1.00076 0.00193034 0)
(1.00149 0.00215881 0)
(1.00176 0.00265346 0)
(1.002 0.00333275 0)
(1.00277 0.00359845 0)
(1.00371 0.00353204 0)
(1.00425 0.0036055 0)
(1.00458 0.00383701 0)
(1.00523 0.00386916 0)
(1.00635 0.00356138 0)
(1.00762 0.00308466 0)
(1.00875 0.00264783 0)
(1.00972 0.00228204 0)