/*--------------------------------*- C++ -*----------------------------------*\
| =========                 |                                                 |
| \\      /  F ield         | OpenFOAM: The Open Source CFD Toolbox           |
|  \\    /   O peration     | Version:  v2012                                 |
|   \\  /    A nd           | Website:  www.openfoam.com                      |
|    \\/     M anipulation  |                                                 |
\*---------------------------------------------------------------------------*/
FoamFile
{
    version     2.0;
    format      ascii;
    class       volScalarField;
    location    "3.4";
    object      p;
}
// * * * * * * * * * * * * * * * * * * * * * * * * * * * * * * * * * * * * * //

dimensions      [0 2 -2 0 0 0 0];


internalField   nonuniform List<scalar> 
17600
(
-7.30119e-11
0.000229518
-0.000583267
-0.00143413
-0.00114983
-0.00141275
-0.00165091
-0.00241392
-0.00235975
-0.00330299
-0.0032897
-0.00401209
-0.0038719
-0.00394738
-0.00389135
-0.00325733
-0.00257183
-0.00045095
0.00105596
0.00493107
6.23747e-07
0.000228791
-0.000582361
-0.00143406
-0.0011496
-0.00141471
-0.00165079
-0.00241711
-0.0023589
-0.00330797
-0.00328801
-0.00401845
-0.00386945
-0.00395644
-0.00388688
-0.00327662
-0.00256383
-0.000532963
0.00107195
0.00460515
1.5141e-06
0.000227401
-0.000580628
-0.00143428
-0.00114988
-0.00141759
-0.00165139
-0.00242224
-0.00235905
-0.00331574
-0.00328656
-0.00402813
-0.00386632
-0.00396914
-0.00388172
-0.00329969
-0.00255664
-0.000615889
0.00107015
0.00417054
2.51848e-06
0.000225417
-0.000578608
-0.00143458
-0.00115088
-0.00142061
-0.00165299
-0.00242859
-0.00236079
-0.00332484
-0.00328646
-0.00403808
-0.003864
-0.00398143
-0.00387768
-0.00332279
-0.00255043
-0.000698822
0.00103752
0.00374677
3.76603e-06
0.000222693
-0.000576194
-0.00143491
-0.00115248
-0.00142377
-0.00165533
-0.00243607
-0.00236316
-0.00333491
-0.00328644
-0.00404763
-0.00386148
-0.00399309
-0.00387385
-0.00334627
-0.00254652
-0.000785928
0.000974258
0.00334484
5.31862e-06
0.000219219
-0.00057323
-0.00143534
-0.00115451
-0.00142706
-0.00165799
-0.00244433
-0.00236533
-0.00334547
-0.00328574
-0.00405661
-0.00385833
-0.00400437
-0.00387017
-0.00337068
-0.00254697
-0.000877095
0.000881227
0.00296588
7.14506e-06
0.000215118
-0.000569738
-0.00143588
-0.00115671
-0.00143042
-0.00166063
-0.00245307
-0.00236712
-0.00335622
-0.00328462
-0.00406496
-0.00385524
-0.00401527
-0.00386776
-0.003396
-0.00255364
-0.00097143
0.000758829
0.00260536
9.19644e-06
0.000210545
-0.00056582
-0.00143649
-0.0011589
-0.00143382
-0.00166315
-0.00246219
-0.00236867
-0.00336712
-0.00328363
-0.00407269
-0.00385306
-0.00402551
-0.00386801
-0.0034215
-0.00256858
-0.00106822
0.000608013
0.00225739
1.14542e-05
0.000205626
-0.000561588
-0.00143715
-0.00116104
-0.0014373
-0.00166555
-0.00247173
-0.00237019
-0.00337818
-0.0032831
-0.00407979
-0.00385231
-0.00403476
-0.00387206
-0.00344631
-0.0025938
-0.00116709
0.00043086
0.00191578
1.3931e-05
0.000200429
-0.000557134
-0.00143787
-0.00116314
-0.00144087
-0.00166792
-0.00248168
-0.00237187
-0.00338932
-0.00328332
-0.00408607
-0.00385338
-0.0040426
-0.00388079
-0.00346985
-0.00263095
-0.00126845
0.000230681
0.00157487
1.66536e-05
0.000194987
-0.00055252
-0.00143866
-0.00116522
-0.00144455
-0.00167033
-0.002492
-0.00237387
-0.00340038
-0.00328457
-0.00409115
-0.00385689
-0.00404844
-0.00389488
-0.00349199
-0.00268107
-0.00137395
1.18525e-05
0.00123025
1.96516e-05
0.000189312
-0.000547777
-0.00143955
-0.00116732
-0.00144832
-0.00167287
-0.00250258
-0.00237637
-0.0034111
-0.0032872
-0.00409455
-0.00386359
-0.00405175
-0.00391496
-0.00351311
-0.00274419
-0.00148662
-0.000220722
0.000879443
2.29533e-05
0.000183413
-0.00054291
-0.00144055
-0.00116942
-0.00145213
-0.00167559
-0.00251328
-0.00237956
-0.0034212
-0.00329164
-0.00409582
-0.00387414
-0.00405221
-0.0039417
-0.00353409
-0.00281911
-0.00161027
-0.00046248
0.000522097
2.65855e-05
0.0001773
-0.000537917
-0.00144164
-0.00117155
-0.00145596
-0.00167856
-0.00252397
-0.00238367
-0.00343033
-0.00329839
-0.00409449
-0.00388914
-0.0040497
-0.00397547
-0.0035567
-0.00290354
-0.00174845
-0.00071016
0.000159523
3.05731e-05
0.000170985
-0.000532793
-0.00144284
-0.00117373
-0.00145977
-0.00168186
-0.00253445
-0.00238898
-0.00343813
-0.00330793
-0.00409017
-0.003909
-0.00404443
-0.00401603
-0.00358364
-0.00299479
-0.00190368
-0.000962408
-0.000205787
3.49387e-05
0.000164479
-0.000527529
-0.00144412
-0.00117598
-0.00146347
-0.0016856
-0.00254452
-0.0023958
-0.00344418
-0.00332078
-0.00408257
-0.00393377
-0.00403688
-0.00406253
-0.00361806
-0.00309065
-0.00207728
-0.00121943
-0.000570835
3.97019e-05
0.000157799
-0.000522126
-0.00144545
-0.00117836
-0.001467
-0.00168994
-0.00255395
-0.00240447
-0.00344809
-0.00333738
-0.0040716
-0.00396328
-0.004029
-0.00411338
-0.00366317
-0.00319016
-0.00226899
-0.00148261
-0.000932984
4.48762e-05
0.000150976
-0.000516586
-0.00144676
-0.00118095
-0.00147021
-0.00169506
-0.00256248
-0.00241535
-0.00344954
-0.00335802
-0.00405742
-0.00399726
-0.00402246
-0.00416631
-0.0037216
-0.00329362
-0.0024768
-0.00175418
-0.00129062
5.04639e-05
0.000144065
-0.000510917
-0.00144801
-0.00118385
-0.00147295
-0.00170116
-0.00256986
-0.00242875
-0.0034483
-0.0033828
-0.00404054
-0.00403495
-0.00401935
-0.00421939
-0.00379509
-0.00340209
-0.00269756
-0.00203635
-0.00164302
5.64523e-05
0.00013714
-0.000505129
-0.00144911
-0.00118724
-0.00147505
-0.00170846
-0.00257581
-0.00244494
-0.00344428
-0.00341154
-0.00402182
-0.00407495
-0.00402202
-0.00427177
-0.00388466
-0.00351759
-0.00292776
-0.00233034
-0.00199023
6.28161e-05
0.000130303
-0.000499255
-0.0014499
-0.00119128
-0.00147632
-0.00171723
-0.00258013
-0.00246405
-0.00343761
-0.00344369
-0.0040025
-0.00411568
-0.00403234
-0.00432335
-0.00399052
-0.00364339
-0.00316467
-0.00263615
-0.00233324
6.95162e-05
0.000123701
-0.000493356
-0.00145024
-0.00119618
-0.00147656
-0.00172766
-0.00258276
-0.002486
-0.00342874
-0.00347845
-0.00398383
-0.00415577
-0.00405159
-0.00437462
-0.00411204
-0.00378359
-0.00340732
-0.00295299
-0.00267394
7.64802e-05
0.000117526
-0.000487496
-0.00144996
-0.00120214
-0.00147562
-0.00173985
-0.0025838
-0.00251051
-0.00341822
-0.00351494
-0.00396714
-0.00419413
-0.00408057
-0.00442692
-0.0042479
-0.00394216
-0.00365658
-0.00327972
-0.00301505
8.35895e-05
0.000112036
-0.000481755
-0.00144888
-0.00120937
-0.00147341
-0.00175383
-0.00258341
-0.0025372
-0.00340679
-0.00355212
-0.00395323
-0.00422992
-0.00411936
-0.0044817
-0.00439634
-0.00412188
-0.00391466
-0.00361586
-0.00336032
9.07203e-05
0.000107553
-0.000476205
-0.00144688
-0.001218
-0.00146998
-0.00176944
-0.00258215
-0.00256517
-0.00339561
-0.00358879
-0.00394304
-0.00426265
-0.00416763
-0.0045401
-0.00455464
-0.00432413
-0.00418496
-0.00396467
-0.00371503
9.77023e-05
0.000104456
-0.000470883
-0.00144388
-0.00122808
-0.00146559
-0.00178624
-0.00258086
-0.0025933
-0.00338552
-0.0036243
-0.00393693
-0.00429227
-0.00422491
-0.00460244
-0.00471688
-0.00454303
-0.00446982
-0.00434006
-0.00408855
0.00010428
0.000103186
-0.0004658
-0.00143987
-0.00123952
-0.00146054
-0.00180377
-0.00258017
-0.00262109
-0.00337645
-0.00365862
-0.00393448
-0.00431998
-0.00429105
-0.00466967
-0.00488007
-0.00477517
-0.00476088
-0.00471826
-0.00451312
0.00011022
0.000104192
-0.000460864
-0.00143501
-0.00125209
-0.00145553
-0.00182134
-0.0025807
-0.00264821
-0.00336819
-0.00369198
-0.00393568
-0.00434555
-0.00436677
-0.00474649
-0.00505225
-0.0050251
-0.00506318
-0.00510378
-0.00494857
0.000115239
0.000107904
-0.000455852
-0.00142952
-0.00126551
-0.00145158
-0.00183812
-0.00258288
-0.00267465
-0.0033605
-0.00372483
-0.00394268
-0.00436996
-0.00445531
-0.0048415
-0.00523016
-0.00528854
-0.00537697
-0.00549326
-0.00538756
0.000119006
0.000114633
-0.000450324
-0.00142378
-0.00127925
-0.00144932
-0.00185379
-0.00258634
-0.00270148
-0.0033528
-0.00375846
-0.00396079
-0.00439998
-0.00455494
-0.00495281
-0.00541232
-0.00555986
-0.00569867
-0.00588075
-0.00582491
0.000121263
0.000124695
-0.000443644
-0.00141842
-0.00129261
-0.00144925
-0.00186855
-0.00259055
-0.00273004
-0.0033437
-0.00379446
-0.00399223
-0.00443409
-0.00465939
-0.00507733
-0.00559932
-0.00583597
-0.00602539
-0.00626323
-0.00625502
0.000121883
0.000138226
-0.00043502
-0.00141413
-0.00130526
-0.00145146
-0.00188335
-0.00259529
-0.00276213
-0.00334298
-0.00383291
-0.00403499
-0.00447222
-0.00476441
-0.00521182
-0.00579092
-0.00611606
-0.00635725
-0.00664033
-0.00667483
0.000120743
0.000155071
-0.000423223
-0.00141142
-0.00131701
-0.00145574
-0.00190001
-0.00260069
-0.00279969
-0.00335008
-0.00387034
-0.00408551
-0.00451464
-0.00486885
-0.00535373
-0.00598698
-0.00640067
-0.00669615
-0.00701299
-0.00708213
0.00011768
0.000176174
-0.000406723
-0.00141034
-0.00132816
-0.00146174
-0.00192089
-0.002609
-0.00284298
-0.00336402
-0.00390423
-0.00414078
-0.00456327
-0.00497378
-0.00550189
-0.00618774
-0.00668965
-0.00704203
-0.00738238
-0.00747511
0.000112741
0.000202047
-0.000384037
-0.00141056
-0.00133996
-0.00146871
-0.00194868
-0.00262384
-0.0028893
-0.00338357
-0.00393426
-0.00419841
-0.00461993
-0.00508119
-0.00565526
-0.00639218
-0.00698078
-0.00739262
-0.00774972
-0.00785381
0.000106188
0.00022607
-0.000354011
-0.00141039
-0.00135383
-0.00147852
-0.00198532
-0.00264458
-0.00293555
-0.00340824
-0.00396146
-0.00425649
-0.00468491
-0.00519337
-0.00581346
-0.00659844
-0.00727069
-0.00774544
-0.0081168
-0.00822068
9.84627e-05
0.000249216
-0.000316109
-0.00140901
-0.00137181
-0.00149262
-0.00203024
-0.00267023
-0.00297972
-0.00343796
-0.00398882
-0.00431404
-0.00475703
-0.00531225
-0.00597741
-0.00680513
-0.00755565
-0.0080974
-0.00848496
-0.00857941
9.02517e-05
0.000270776
-0.000271474
-0.0014054
-0.00139586
-0.0015111
-0.00208114
-0.00270086
-0.00302073
-0.00347246
-0.00401974
-0.00437122
-0.00483387
-0.00543749
-0.00614853
-0.00701237
-0.00783254
-0.00844416
-0.00885363
-0.00893346
8.24923e-05
0.000289343
-0.000221872
-0.00139854
-0.00142652
-0.00153316
-0.00213631
-0.00273776
-0.00305872
-0.00351066
-0.0040567
-0.00442918
-0.00491229
-0.00556648
-0.00632759
-0.00722256
-0.00810044
-0.00878101
-0.00921987
-0.00928475
7.6132e-05
0.000304054
-0.000169507
-0.00138761
-0.00146355
-0.00155716
-0.00219433
-0.00278235
-0.00309435
-0.00355028
-0.00410117
-0.00449011
-0.00499044
-0.00569609
-0.00651365
-0.0074389
-0.00836093
-0.00910434
-0.00957876
-0.0096327
7.20054e-05
0.000311698
-0.000116959
-0.00137236
-0.0015064
-0.00158465
-0.00225325
-0.00283536
-0.00312914
-0.00358851
-0.00415311
-0.0045567
-0.00506816
-0.00582313
-0.0067037
-0.00766266
-0.008617
-0.0094125
-0.0099249
-0.00997445
7.08492e-05
0.000318275
-6.64696e-05
-0.00135313
-0.00155518
-0.00161598
-0.00231037
-0.00289663
-0.0031657
-0.00362318
-0.00421037
-0.00463159
-0.00514719
-0.00594488
-0.0068934
-0.00789289
-0.00887163
-0.00970578
-0.0102537
-0.0103056
7.31718e-05
0.000321503
-1.95421e-05
-0.00133154
-0.00161108
-0.00165151
-0.00236236
-0.00296465
-0.0032071
-0.0036534
-0.00426957
-0.00471638
-0.00523093
-0.00606011
-0.00707791
-0.00812677
-0.00912692
-0.0099861
-0.0105626
-0.0106214
7.9576e-05
0.000321736
2.23891e-05
-0.00131055
-0.00167569
-0.00169153
-0.00240587
-0.00303682
-0.00325611
-0.00367983
-0.00432683
-0.00481023
-0.00532292
-0.0061696
-0.00725259
-0.00835979
-0.00938354
-0.0102566
-0.0108514
-0.0109178
9.07407e-05
0.000319781
5.7339e-05
-0.00129243
-0.00174991
-0.00173685
-0.00243861
-0.00310964
-0.00331487
-0.0037046
-0.00437833
-0.00490984
-0.0054257
-0.00627592
-0.00741395
-0.00858599
-0.00964015
-0.0105206
-0.0111223
-0.0111927
0.000107051
0.000315912
8.29458e-05
-0.00127899
-0.0018331
-0.00179002
-0.00246058
-0.00317901
-0.00338466
-0.00373104
-0.00442116
-0.00501073
-0.0055399
-0.00638293
-0.00756082
-0.00879899
-0.00989308
-0.0107804
-0.0113787
-0.0114456
0.000128045
0.000309567
9.73167e-05
-0.00126703
-0.00192171
-0.00185488
-0.00247383
-0.00324063
-0.0034653
-0.0037632
-0.00445426
-0.00510722
-0.00566349
-0.00649451
-0.00769435
-0.00899352
-0.0101368
-0.0110361
-0.0116245
-0.0116787
0.000150645
0.000298629
0.000102123
-0.00125117
-0.0020122
-0.00193532
-0.00248311
-0.00329066
-0.00355439
-0.00380549
-0.00447901
-0.00519351
-0.0057922
-0.00661302
-0.00781729
-0.00916623
-0.0103645
-0.0112846
-0.0118619
-0.0118951
0.000173533
0.000281753
9.77602e-05
-0.00123118
-0.00210093
-0.00203319
-0.00249433
-0.00332613
-0.00364679
-0.00386118
-0.00449918
-0.00526519
-0.00592
-0.00673855
-0.00793338
-0.00931636
-0.0105697
-0.0115202
-0.0120907
-0.0120981
0.000198119
0.000262133
7.67402e-05
-0.00121096
-0.00218396
-0.00214781
-0.00251293
-0.00334594
-0.00373596
-0.00393071
-0.00451965
-0.00532033
-0.00603974
-0.00686841
-0.00804615
-0.00944565
-0.010748
-0.0117363
-0.0123078
-0.0122894
0.000222105
0.000237951
4.27142e-05
-0.00119116
-0.0022586
-0.0022772
-0.00254491
-0.0033525
-0.00381602
-0.00401185
-0.00454513
-0.00535953
-0.00614422
-0.00699692
-0.00815691
-0.00955702
-0.0108977
-0.0119268
-0.0125081
-0.0124682
0.000241077
0.000208389
-2.4983e-06
-0.00117318
-0.00232251
-0.00241799
-0.00259535
-0.00334977
-0.00388145
-0.00409958
-0.00457874
-0.00538539
-0.00622785
-0.00711639
-0.00826387
-0.0096539
-0.0110199
-0.0120882
-0.0126866
-0.0126317
0.000254096
0.000173858
-5.93353e-05
-0.00116088
-0.00237393
-0.00256551
-0.00266719
-0.00334277
-0.00392778
-0.00418725
-0.00462184
-0.00540185
-0.00628724
-0.00721842
-0.0083624
-0.00973814
-0.0111168
-0.0122187
-0.0128387
-0.012776
0.000261172
0.00013628
-0.000130408
-0.00116049
-0.00241318
-0.00271387
-0.00276145
-0.00333822
-0.00395332
-0.00426749
-0.00467329
-0.00541306
-0.00632084
-0.00729457
-0.00844519
-0.00980706
-0.0111886
-0.012317
-0.0129599
-0.0128966
0.000260774
9.53908e-05
-0.000215892
-0.00117657
-0.00244246
-0.00285648
-0.0028762
-0.00334283
-0.00395949
-0.00433251
-0.0047279
-0.00542181
-0.00633006
-0.00733872
-0.00850321
-0.00985425
-0.0112338
-0.012381
-0.0130471
-0.0129892
0.00024983
4.87249e-05
-0.000312741
-0.00121113
-0.00246504
-0.00298788
-0.0030071
-0.00336251
-0.00395094
-0.0043761
-0.00477787
-0.00542822
-0.00631816
-0.00734773
-0.00852796
-0.00987279
-0.0112482
-0.0124077
-0.0130968
-0.0130494
0.000226256
-3.89727e-06
-0.000419939
-0.00126612
-0.00248654
-0.00310562
-0.00314872
-0.00340101
-0.00393402
-0.0043947
-0.00481422
-0.00542857
-0.00628718
-0.00732024
-0.00851194
-0.00985394
-0.0112246
-0.0123938
-0.0131037
-0.013072
0.00018749
-6.21784e-05
-0.000536066
-0.00134194
-0.00251285
-0.00320964
-0.0032951
-0.0034587
-0.00391476
-0.00438805
-0.00482851
-0.00541645
-0.00623659
-0.00725595
-0.00844927
-0.0097883
-0.0111551
-0.0123335
-0.0130637
-0.0130517
0.000130406
-0.000136468
-0.000657669
-0.00143809
-0.00254955
-0.00330149
-0.00344048
-0.00353371
-0.00389808
-0.00435829
-0.0048147
-0.00538409
-0.00616303
-0.00715334
-0.00833495
-0.00966676
-0.0110307
-0.0122187
-0.0129703
-0.0129817
5.40903e-05
-0.000219864
-0.000788413
-0.0015555
-0.00260216
-0.00338413
-0.00357996
-0.00362239
-0.00388785
-0.00430887
-0.0047691
-0.00532312
-0.00605995
-0.0070085
-0.00816332
-0.0094799
-0.0108394
-0.0120379
-0.0128139
-0.0128557
-4.3598e-05
-0.000320177
-0.000927542
-0.00169351
-0.00267473
-0.00346175
-0.00371041
-0.00372055
-0.0038868
-0.0042443
-0.00468942
-0.00522484
-0.00591786
-0.0068145
-0.00792673
-0.00921671
-0.0105668
-0.0117759
-0.0125809
-0.0126616
-0.000165721
-0.000439531
-0.00107685
-0.00185048
-0.00277001
-0.0035404
-0.00383158
-0.00382463
-0.00389661
-0.00416948
-0.00457489
-0.00508075
-0.00572557
-0.00656085
-0.00761447
-0.00886233
-0.010194
-0.0114121
-0.0122538
-0.0123778
-0.000313799
-0.000581476
-0.00123836
-0.00202506
-0.00288963
-0.00362717
-0.00394575
-0.00393186
-0.00391935
-0.0040902
-0.00442825
-0.00488495
-0.00547086
-0.00623342
-0.00721054
-0.00839489
-0.00969292
-0.010915
-0.0117869
-0.0119669
-0.00048893
-0.000747314
-0.00141797
-0.00221693
-0.00303377
-0.00372754
-0.00405634
-0.00404159
-0.00395825
-0.00401725
-0.00425707
-0.00463591
-0.00514228
-0.00581276
-0.00668999
-0.00778401
-0.00902304
-0.0102344
-0.0111428
-0.011397
-0.000694168
-0.000940886
-0.00161847
-0.00242326
-0.00320169
-0.00384516
-0.00416714
-0.00415323
-0.00401675
-0.00396691
-0.0040783
-0.00433921
-0.00472884
-0.00527216
-0.00601668
-0.00698581
-0.00813722
-0.00931759
-0.010267
-0.0106234
-0.000946111
-0.00116839
-0.00183394
-0.00263631
-0.00339157
-0.00398349
-0.004283
-0.004267
-0.00409324
-0.00395325
-0.00392412
-0.00401579
-0.00422389
-0.00457582
-0.00513268
-0.00592401
-0.00693837
-0.00806673
-0.00907046
-0.00957969
-0.00124948
-0.00147027
-0.00205576
-0.00285611
-0.00360266
-0.00414185
-0.00440653
-0.00438423
-0.00418437
-0.0039759
-0.00383933
-0.00373877
-0.0036701
-0.00370442
-0.00392682
-0.00442966
-0.00523046
-0.00626155
-0.00735313
-0.00812868
-0.00156617
-0.00176814
-0.00235907
-0.00313606
-0.00383584
-0.00431546
-0.00453685
-0.00450732
-0.00429153
-0.00402583
-0.00383357
-0.00362576
-0.00328579
-0.00278324
-0.00230067
-0.00209639
-0.00234618
-0.00305078
-0.004049
-0.00507122
-0.0019182
-0.00211337
-0.0027208
-0.00346497
-0.00408809
-0.00449497
-0.00466995
-0.00464019
-0.00442762
-0.00409531
-0.0037795
-0.00367326
-0.00352567
-0.00274285
-0.00147808
-0.000374305
0.000245508
0.000518985
0.000711342
0.000850608
-0.00236143
-0.00252554
-0.00310545
-0.00379398
-0.00433943
-0.00466524
-0.00479833
-0.00475528
-0.00459374
-0.00426556
-0.00337758
-0.00218432
-0.00109124
-0.000181719
0.000592931
0.00134251
0.00213153
0.00290579
0.00349861
0.00360829
-0.00290789
-0.00301476
-0.0035096
-0.00410675
-0.00457121
-0.00480409
-0.00488497
-0.0047627
-0.00403878
-0.0029609
-0.0019037
-0.00104203
-0.000346641
0.000317779
0.00112833
0.00210919
0.00317393
0.00415932
0.00483185
0.00486255
-0.00355714
-0.00362707
-0.00393011
-0.00433728
-0.0047263
-0.00485968
-0.00443697
-0.00373519
-0.00297445
-0.00225451
-0.00159958
-0.000933544
-0.000169897
0.000760183
0.00184279
0.00302919
0.00422204
0.00526567
0.00593193
0.00588276
-0.00430103
-0.00438734
-0.00445369
-0.00439187
-0.00426043
-0.00404138
-0.00368564
-0.00324556
-0.00276221
-0.00218945
-0.00149033
-0.00065044
0.000327818
0.00142248
0.00261742
0.00387145
0.00509707
0.00613935
0.00676141
0.00663321
-0.00506464
-0.00508565
-0.00470076
-0.00424609
-0.00387655
-0.00359202
-0.00333071
-0.00300382
-0.00255791
-0.00194539
-0.00114939
-0.000199287
0.000868091
0.00202978
0.00326883
0.00454198
0.00575705
0.00676305
0.00733245
0.00713786
-0.00567592
-0.00554131
-0.00496629
-0.00427197
-0.00370692
-0.00331745
-0.00301232
-0.00267681
-0.00221363
-0.00157663
-0.000759542
0.000217241
0.00131999
0.0025169
0.00377649
0.00504922
0.00624613
0.00722028
0.00774738
0.00750186
-0.00615437
-0.00593274
-0.00524678
-0.00438494
-0.003633
-0.00309297
-0.00269965
-0.00232146
-0.0018505
-0.00122266
-0.000414308
0.000562897
0.00167943
0.00289814
0.00417503
0.00545092
0.00663458
0.00758195
0.00807303
0.00778576
-0.00656073
-0.00627775
-0.00548325
-0.00449028
-0.0035878
-0.0029122
-0.00242627
-0.00200443
-0.00152585
-0.000907273
-0.000111398
0.000861606
0.00198445
0.00321512
0.00450211
0.00577909
0.00695141
0.00787609
0.00833676
0.00801514
-0.00688838
-0.00655236
-0.00568175
-0.00458617
-0.00356609
-0.00278082
-0.00221352
-0.00174688
-0.00125258
-0.000637189
0.0001476
0.00111077
0.00223083
0.00346544
0.00475659
0.00603282
0.00719627
0.00810378
0.00854127
0.00819374
-0.00713311
-0.00676484
-0.00583727
-0.0046708
-0.00357081
-0.00270531
-0.0020721
-0.00156051
-0.00104008
-0.000410635
0.000379444
0.00134172
0.00245698
0.00368499
0.00497121
0.00624132
0.00739507
0.00828877
0.00870927
0.00834308
-0.00728417
-0.00690492
-0.00595324
-0.00475282
-0.00361222
-0.00270402
-0.00203018
-0.00148381
-0.000936852
-0.000287944
0.000519779
0.00149914
0.00262873
0.00386529
0.00515069
0.00641336
0.00755623
0.00843903
0.00885079
0.00847822
0.00876565
0.00355943
-0.00392524
-0.00902666
-0.010029
-0.00879952
-0.00733646
-0.0063054
-0.00570525
-0.0053922
-0.00525184
-0.00522635
-0.00528631
-0.00540175
-0.0055422
-0.00568924
-0.0058371
-0.00598415
-0.00612822
-0.00626789
-0.00640332
-0.00653534
-0.0066641
-0.00678914
-0.00691031
-0.0070286
-0.00714569
-0.00726284
-0.0073804
-0.00749805
-0.00761542
-0.00773259
-0.00785021
-0.00796888
-0.0080885
-0.00820816
-0.00832682
-0.00844401
-0.00856004
-0.00867503
-0.0087884
-0.00889922
-0.00900726
-0.00911288
-0.00921655
-0.00931835
-0.00941826
-0.00951618
-0.00961227
-0.00970687
-0.00980046
-0.00989338
-0.00998567
-0.0100771
-0.0101676
-0.0102573
-0.0103467
-0.0104361
-0.0105253
-0.0106142
-0.0107028
-0.0107916
-0.0108804
-0.0109692
-0.0110581
-0.0111471
-0.0112363
-0.0113255
-0.0114148
-0.011504
-0.0115931
-0.0116823
-0.0117717
-0.0118612
-0.0119508
-0.0120403
-0.01213
-0.0122198
-0.0123098
-0.0123999
-0.01249
-0.0125802
-0.0126706
-0.0127611
-0.0128517
-0.0129423
-0.0130332
-0.0131244
-0.013216
-0.0133077
-0.0133995
-0.0134917
-0.0135843
-0.0136776
-0.0137711
-0.0138651
-0.0139594
-0.0140546
-0.0141502
-0.0142466
-0.0143433
-0.0144407
-0.0145385
-0.0146369
-0.0147357
-0.014835
-0.0149347
-0.0150349
-0.0151354
-0.0152364
-0.0153379
-0.0154397
-0.0155421
-0.0156448
-0.0157482
-0.0158517
-0.0159559
-0.0160602
-0.0161653
-0.0162706
-0.0163764
-0.0164824
-0.0165889
-0.0166962
-0.0168039
-0.0169123
-0.0170209
-0.0171304
-0.0172401
-0.0173507
-0.0174614
-0.0175728
-0.0176846
-0.0177968
-0.0179098
-0.0180231
-0.0181375
-0.0182519
-0.0183676
-0.0184833
-0.0186001
-0.018717
-0.0188348
-0.0189529
-0.0190716
-0.0191916
-0.0193117
-0.0194332
-0.0195543
-0.0196772
-0.0198
-0.0199239
-0.0200478
-0.0201725
-0.0202985
-0.0204243
-0.020552
-0.0206791
-0.0208084
-0.020937
-0.0210675
-0.0211977
-0.0213288
-0.0214613
-0.0215937
-0.0217282
-0.0218614
-0.0219974
-0.0221324
-0.022269
-0.0224061
-0.0225435
-0.0226834
-0.0228216
-0.0229635
-0.0231032
-0.0232461
-0.0233884
-0.023531
-0.0236764
-0.0238192
-0.023967
-0.0241108
-0.0242587
-0.0244052
-0.0245522
-0.0247017
-0.0248479
-0.0249994
-0.0251463
-0.0252968
-0.0254465
-0.0255931
-0.0257462
-0.0258878
-0.0260384
-0.0261765
-0.0263136
-0.0264358
-0.0265465
0.00804079
0.00339001
-0.00384286
-0.00889466
-0.00995216
-0.00876296
-0.00731348
-0.00628914
-0.00569344
-0.00538316
-0.00524447
-0.00522004
-0.00528073
-0.00539676
-0.00553768
-0.00568512
-0.00583333
-0.00598068
-0.00612504
-0.00626496
-0.00640061
-0.00653284
-0.00666179
-0.006787
-0.00690833
-0.00702676
-0.00714396
-0.00726123
-0.00737889
-0.00749662
-0.00761407
-0.00773131
-0.007849
-0.00796772
-0.0080874
-0.00820711
-0.00832582
-0.00844305
-0.00855913
-0.00867415
-0.00878756
-0.00889842
-0.00900649
-0.00911214
-0.00921583
-0.00931767
-0.0094176
-0.00951554
-0.00961166
-0.00970628
-0.00979989
-0.00989283
-0.00998514
-0.0100766
-0.0101671
-0.0102568
-0.0103463
-0.0104357
-0.0105249
-0.0106138
-0.0107024
-0.0107912
-0.01088
-0.0109689
-0.0110578
-0.0111468
-0.0112359
-0.0113252
-0.0114145
-0.0115037
-0.0115928
-0.011682
-0.0117714
-0.0118609
-0.0119505
-0.0120401
-0.0121297
-0.0122195
-0.0123096
-0.0123996
-0.0124898
-0.0125799
-0.0126704
-0.0127609
-0.0128515
-0.0129421
-0.013033
-0.0131242
-0.0132159
-0.0133075
-0.0133994
-0.0134915
-0.0135842
-0.0136774
-0.013771
-0.0138649
-0.0139593
-0.0140544
-0.0141501
-0.0142464
-0.0143431
-0.0144406
-0.0145383
-0.0146368
-0.0147355
-0.0148349
-0.0149346
-0.0150348
-0.0151353
-0.0152363
-0.0153378
-0.0154396
-0.015542
-0.0156447
-0.0157481
-0.0158516
-0.0159558
-0.0160601
-0.0161652
-0.0162705
-0.0163763
-0.0164823
-0.0165889
-0.0166962
-0.0168038
-0.0169122
-0.0170208
-0.0171303
-0.0172401
-0.0173506
-0.0174614
-0.0175727
-0.0176845
-0.0177967
-0.0179098
-0.018023
-0.0181374
-0.0182518
-0.0183675
-0.0184832
-0.0186001
-0.018717
-0.0188348
-0.0189529
-0.0190715
-0.0191915
-0.0193117
-0.0194332
-0.0195542
-0.0196772
-0.0197999
-0.0199239
-0.0200477
-0.0201725
-0.0202984
-0.0204243
-0.020552
-0.020679
-0.0208084
-0.020937
-0.0210674
-0.0211976
-0.0213287
-0.0214612
-0.0215936
-0.0217281
-0.0218614
-0.0219974
-0.0221324
-0.022269
-0.0224061
-0.0225434
-0.0226834
-0.0228216
-0.0229634
-0.0231031
-0.0232461
-0.0233884
-0.023531
-0.0236763
-0.0238192
-0.023967
-0.0241108
-0.0242587
-0.0244052
-0.0245522
-0.0247017
-0.0248479
-0.0249994
-0.0251463
-0.0252968
-0.0254464
-0.0255931
-0.0257462
-0.0258878
-0.0260384
-0.0261765
-0.0263136
-0.0264358
-0.0265465
0.0072782
0.00322331
-0.00366279
-0.00864345
-0.00981172
-0.00870674
-0.00728271
-0.00626583
-0.00567538
-0.00536945
-0.00523399
-0.00521181
-0.00527403
-0.00539108
-0.0055327
-0.00568066
-0.00582929
-0.005977
-0.00612167
-0.00626186
-0.00639776
-0.0065302
-0.00665935
-0.00678475
-0.00690625
-0.00702483
-0.00714218
-0.00725957
-0.00737734
-0.00749517
-0.00761271
-0.00773003
-0.00784779
-0.00796657
-0.00808631
-0.00820607
-0.00832483
-0.00844211
-0.00855823
-0.00867329
-0.00878674
-0.00889763
-0.00900574
-0.00911142
-0.00921514
-0.009317
-0.00941696
-0.00951493
-0.00961107
-0.00970571
-0.00979934
-0.0098923
-0.00998463
-0.0100761
-0.0101666
-0.0102564
-0.0103458
-0.0104352
-0.0105245
-0.0106134
-0.0107021
-0.0107908
-0.0108796
-0.0109685
-0.0110574
-0.0111465
-0.0112356
-0.0113249
-0.0114142
-0.0115034
-0.0115926
-0.0116818
-0.0117711
-0.0118607
-0.0119503
-0.0120398
-0.0121295
-0.0122193
-0.0123093
-0.0123994
-0.0124896
-0.0125797
-0.0126702
-0.0127607
-0.0128513
-0.0129419
-0.0130328
-0.0131241
-0.0132157
-0.0133074
-0.0133992
-0.0134913
-0.013584
-0.0136773
-0.0137708
-0.0138648
-0.0139591
-0.0140543
-0.0141499
-0.0142463
-0.014343
-0.0144404
-0.0145382
-0.0146366
-0.0147354
-0.0148348
-0.0149345
-0.0150346
-0.0151352
-0.0152361
-0.0153377
-0.0154395
-0.0155419
-0.0156446
-0.015748
-0.0158515
-0.0159557
-0.0160601
-0.0161651
-0.0162704
-0.0163762
-0.0164822
-0.0165888
-0.0166961
-0.0168038
-0.0169121
-0.0170207
-0.0171302
-0.01724
-0.0173505
-0.0174613
-0.0175726
-0.0176844
-0.0177967
-0.0179097
-0.018023
-0.0181373
-0.0182517
-0.0183675
-0.0184832
-0.0186
-0.0187169
-0.0188347
-0.0189528
-0.0190715
-0.0191915
-0.0193116
-0.0194331
-0.0195542
-0.0196771
-0.0197999
-0.0199238
-0.0200477
-0.0201724
-0.0202984
-0.0204243
-0.0205519
-0.020679
-0.0208083
-0.0209369
-0.0210674
-0.0211976
-0.0213287
-0.0214612
-0.0215936
-0.0217281
-0.0218614
-0.0219973
-0.0221324
-0.022269
-0.022406
-0.0225434
-0.0226834
-0.0228215
-0.0229634
-0.0231031
-0.023246
-0.0233883
-0.023531
-0.0236763
-0.0238192
-0.023967
-0.0241108
-0.0242587
-0.0244051
-0.0245522
-0.0247017
-0.0248479
-0.0249994
-0.0251463
-0.0252967
-0.0254464
-0.0255931
-0.0257461
-0.0258877
-0.0260383
-0.0261765
-0.0263136
-0.0264358
-0.0265464
0.00655065
0.00307687
-0.00341266
-0.00830839
-0.00961405
-0.00862555
-0.00723809
-0.00623042
-0.00564707
-0.00534813
-0.00521834
-0.00520025
-0.00526519
-0.00538392
-0.00552659
-0.00567527
-0.00582445
-0.00597261
-0.00611766
-0.00625818
-0.00639437
-0.00652706
-0.00665643
-0.00678205
-0.00690376
-0.00702256
-0.0071401
-0.00725766
-0.00737557
-0.00749353
-0.00761118
-0.00772861
-0.00784646
-0.00796533
-0.00808514
-0.00820497
-0.00832378
-0.00844112
-0.00855728
-0.00867239
-0.00878587
-0.00889681
-0.00900495
-0.00911066
-0.00921442
-0.00931631
-0.0094163
-0.00951429
-0.00961045
-0.00970512
-0.00979878
-0.00989176
-0.00998411
-0.0100756
-0.0101661
-0.0102559
-0.0103454
-0.0104348
-0.0105241
-0.010613
-0.0107017
-0.0107904
-0.0108793
-0.0109682
-0.0110571
-0.0111461
-0.0112353
-0.0113246
-0.0114139
-0.0115031
-0.0115923
-0.0116815
-0.0117708
-0.0118604
-0.01195
-0.0120396
-0.0121292
-0.012219
-0.0123091
-0.0123992
-0.0124894
-0.0125795
-0.0126699
-0.0127605
-0.0128511
-0.0129418
-0.0130327
-0.0131239
-0.0132155
-0.0133072
-0.013399
-0.0134912
-0.0135838
-0.0136771
-0.0137707
-0.0138646
-0.013959
-0.0140542
-0.0141498
-0.0142462
-0.0143429
-0.0144403
-0.0145381
-0.0146365
-0.0147353
-0.0148347
-0.0149344
-0.0150345
-0.0151351
-0.015236
-0.0153376
-0.0154394
-0.0155418
-0.0156445
-0.0157479
-0.0158514
-0.0159556
-0.01606
-0.016165
-0.0162704
-0.0163761
-0.0164821
-0.0165887
-0.016696
-0.0168037
-0.0169121
-0.0170207
-0.0171302
-0.0172399
-0.0173504
-0.0174612
-0.0175726
-0.0176844
-0.0177966
-0.0179096
-0.0180229
-0.0181373
-0.0182517
-0.0183674
-0.0184831
-0.0185999
-0.0187169
-0.0188347
-0.0189528
-0.0190714
-0.0191914
-0.0193116
-0.0194331
-0.0195541
-0.0196771
-0.0197998
-0.0199238
-0.0200476
-0.0201724
-0.0202983
-0.0204242
-0.0205519
-0.0206789
-0.0208083
-0.0209369
-0.0210674
-0.0211976
-0.0213287
-0.0214612
-0.0215936
-0.0217281
-0.0218613
-0.0219973
-0.0221323
-0.0222689
-0.022406
-0.0225434
-0.0226833
-0.0228215
-0.0229634
-0.0231031
-0.023246
-0.0233883
-0.023531
-0.0236763
-0.0238191
-0.0239669
-0.0241108
-0.0242586
-0.0244051
-0.0245521
-0.0247017
-0.0248478
-0.0249993
-0.0251462
-0.0252967
-0.0254464
-0.0255931
-0.0257461
-0.0258877
-0.0260383
-0.0261764
-0.0263136
-0.0264358
-0.0265464
0.00584924
0.00291799
-0.00314362
-0.00794174
-0.00939024
-0.00853237
-0.00718619
-0.00618604
-0.00560922
-0.00531865
-0.00519647
-0.0051842
-0.0052531
-0.00537429
-0.00551849
-0.00566821
-0.00581816
-0.00596691
-0.00611245
-0.00625339
-0.00638993
-0.00652292
-0.00665255
-0.00677842
-0.00690042
-0.00701951
-0.00713734
-0.00725515
-0.00737327
-0.0074914
-0.00760923
-0.00772682
-0.00784482
-0.00796381
-0.00808371
-0.00820362
-0.00832252
-0.00843992
-0.00855615
-0.00867131
-0.00878485
-0.00889582
-0.00900401
-0.00910978
-0.00921358
-0.0093155
-0.00941552
-0.00951355
-0.00960974
-0.00970445
-0.00979813
-0.00989114
-0.0099835
-0.010075
-0.0101656
-0.0102554
-0.0103449
-0.0104343
-0.0105236
-0.0106125
-0.0107012
-0.01079
-0.0108788
-0.0109678
-0.0110567
-0.0111457
-0.0112349
-0.0113242
-0.0114135
-0.0115028
-0.011592
-0.0116812
-0.0117705
-0.0118601
-0.0119497
-0.0120393
-0.012129
-0.0122188
-0.0123089
-0.012399
-0.0124891
-0.0125793
-0.0126697
-0.0127603
-0.0128509
-0.0129415
-0.0130325
-0.0131237
-0.0132153
-0.013307
-0.0133988
-0.013491
-0.0135837
-0.0136769
-0.0137705
-0.0138645
-0.0139588
-0.014054
-0.0141496
-0.014246
-0.0143427
-0.0144401
-0.0145379
-0.0146364
-0.0147352
-0.0148345
-0.0149343
-0.0150344
-0.015135
-0.0152359
-0.0153374
-0.0154392
-0.0155417