/*--------------------------------*- C++ -*----------------------------------*\
| =========                 |                                                 |
| \\      /  F ield         | OpenFOAM: The Open Source CFD Toolbox           |
|  \\    /   O peration     | Version:  v2012                                 |
|   \\  /    A nd           | Website:  www.openfoam.com                      |
|    \\/     M anipulation  |                                                 |
\*---------------------------------------------------------------------------*/
FoamFile
{
    version     2.0;
    format      ascii;
    class       volScalarField;
    location    "1.05";
    object      p;
}
// * * * * * * * * * * * * * * * * * * * * * * * * * * * * * * * * * * * * * //

dimensions      [0 2 -2 0 0 0 0];


internalField   nonuniform List<scalar> 
17600
(
3.00206e-11
-0.000620418
-0.00112716
-0.000761034
-0.00125602
-0.00171817
-0.0023132
-0.00259287
-0.00314269
-0.00345988
-0.00400022
-0.00439988
-0.00477095
-0.00462652
-0.00456386
-0.00405956
-0.0035704
-0.00214902
-0.000265114
0.00335884
1.30991e-06
-0.000621098
-0.00112736
-0.000762897
-0.0012551
-0.0017242
-0.00231026
-0.00259567
-0.00313915
-0.0034634
-0.00399687
-0.00440402
-0.00476772
-0.00464194
-0.00455888
-0.0040846
-0.00356093
-0.0022023
-0.000252112
0.00307862
3.10228e-06
-0.000622139
-0.00112766
-0.000765698
-0.00125371
-0.00173068
-0.00230709
-0.00259985
-0.00313485
-0.00346905
-0.00399188
-0.00441045
-0.00476285
-0.00465474
-0.00455265
-0.00411237
-0.00355029
-0.00226384
-0.0002531
0.00268281
4.92599e-06
-0.000622473
-0.00112818
-0.000768986
-0.00125223
-0.0017369
-0.00230454
-0.00260443
-0.0031309
-0.00347538
-0.00398677
-0.00441756
-0.00475757
-0.00466792
-0.00454768
-0.00414013
-0.00354349
-0.00232403
-0.000284198
0.00229177
7.05673e-06
-0.000621988
-0.00112917
-0.000772932
-0.0012506
-0.00174303
-0.00230252
-0.0026094
-0.00312685
-0.00348229
-0.00398132
-0.00442532
-0.00475183
-0.00468252
-0.00454292
-0.00416949
-0.00353939
-0.002386
-0.000346657
0.00192166
9.64409e-06
-0.000620936
-0.00113072
-0.000777547
-0.00124876
-0.00174926
-0.0023008
-0.00261473
-0.00312249
-0.00348965
-0.00397537
-0.00443371
-0.00474557
-0.00469836
-0.00453813
-0.00420165
-0.00353833
-0.0024514
-0.000438652
0.00157483
1.26342e-05
-0.000619556
-0.0011328
-0.000782723
-0.00124673
-0.00175566
-0.00229912
-0.00262032
-0.00311776
-0.00349731
-0.00396901
-0.00444257
-0.0047391
-0.00471502
-0.00453395
-0.00423504
-0.00354252
-0.00252021
-0.000558062
0.00124733
1.59379e-05
-0.00061802
-0.00113524
-0.000788339
-0.00124449
-0.00176225
-0.00229733
-0.00262615
-0.00311263
-0.0035052
-0.00396239
-0.00445188
-0.00473278
-0.00473225
-0.00453129
-0.00426801
-0.00355458
-0.00259151
-0.000703121
0.000932966
1.95112e-05
-0.000616443
-0.00113788
-0.000794299
-0.00124207
-0.00176907
-0.00229532
-0.00263224
-0.00310713
-0.00351334
-0.00395566
-0.00446166
-0.00472689
-0.00474982
-0.00453111
-0.00430017
-0.0035767
-0.00266479
-0.000871872
0.000625401
2.33557e-05
-0.000614895
-0.00114057
-0.000800542
-0.00123946
-0.00177615
-0.0022931
-0.00263858
-0.00310128
-0.0035217
-0.00394893
-0.0044718
-0.00472173
-0.00476737
-0.00453434
-0.00433096
-0.0036104
-0.00274033
-0.00106163
0.000318938
2.74912e-05
-0.000613423
-0.00114323
-0.000807035
-0.00123669
-0.00178352
-0.00229067
-0.00264518
-0.00309513
-0.00353021
-0.00394233
-0.00448212
-0.00471771
-0.00478431
-0.00454196
-0.00436013
-0.00365654
-0.00281954
-0.00126888
9.12999e-06
3.19363e-05
-0.00061206
-0.00114582
-0.000813757
-0.00123375
-0.00179119
-0.00228807
-0.00265198
-0.00308872
-0.00353876
-0.00393602
-0.00449232
-0.00471535
-0.00479994
-0.00455501
-0.00438778
-0.0037152
-0.00290504
-0.00148959
-0.000306755
3.67059e-05
-0.000610827
-0.00114828
-0.00082069
-0.00123066
-0.00179917
-0.00228533
-0.00265893
-0.00308214
-0.00354721
-0.00393023
-0.00450202
-0.00471523
-0.00481369
-0.00457428
-0.00441453
-0.00378567
-0.00300017
-0.00171985
-0.000629645
4.18124e-05
-0.00060974
-0.0011506
-0.000827814
-0.00122741
-0.00180745
-0.00228248
-0.00266594
-0.00307549
-0.00355531
-0.00392528
-0.00451075
-0.00471794
-0.00482526
-0.00460021
-0.0044418
-0.00386647
-0.00310812
-0.00195669
-0.000959033
4.72672e-05
-0.000608804
-0.00115276
-0.000835104
-0.00122404
-0.001816
-0.00227957
-0.00267288
-0.00306893
-0.00356279
-0.00392157
-0.00451803
-0.00472404
-0.00483416
-0.00463266
-0.00447175
-0.00395577
-0.00323127
-0.00219849
-0.00129342
5.30785e-05
-0.000608019
-0.00115473
-0.00084253
-0.00122055
-0.00182477
-0.00227668
-0.00267959
-0.00306267
-0.00356929
-0.00391951
-0.00452346
-0.00473398
-0.00484122
-0.00467089
-0.00450692
-0.00405205
-0.00337108
-0.00244488
-0.00163065
5.92511e-05
-0.000607374
-0.0011565
-0.000850049
-0.001217
-0.00183369
-0.00227393
-0.00268586
-0.00305697
-0.00357448
-0.00391951
-0.00452683
-0.00474791
-0.0048475
-0.00471375
-0.00454975
-0.00415465
-0.00352807
-0.00269647
-0.00196839
6.57829e-05
-0.000606845
-0.00115808
-0.0008576
-0.00121344
-0.00184264
-0.00227148
-0.00269143
-0.00305208
-0.00357799
-0.00392182
-0.00452815
-0.00476559
-0.00485433
-0.00476
-0.0046021
-0.00426374
-0.00370167
-0.00295482
-0.00230482
7.26619e-05
-0.000606391
-0.00115946
-0.000865099
-0.00120996
-0.00185149
-0.00226953
-0.00269603
-0.00304825
-0.0035796
-0.00392652
-0.00452774
-0.00478635
-0.0048633
-0.00480879
-0.00466528
-0.0043799
-0.0038905
-0.00322199
-0.00263894
7.98644e-05
-0.000605944
-0.00116067
-0.00087243
-0.00120669
-0.00186007
-0.00226826
-0.00269942
-0.00304566
-0.00357921
-0.00393351
-0.00452623
-0.00480918
-0.00487568
-0.00485992
-0.00474025
-0.00450419
-0.00409278
-0.00349976
-0.00297099
8.73473e-05
-0.000605398
-0.00116176
-0.000879456
-0.00120379
-0.00186817
-0.00226787
-0.00270142
-0.00304443
-0.00357685
-0.00394251
-0.0045245
-0.00483303
-0.00489229
-0.00491342
-0.00482756
-0.00463812
-0.00430673
-0.00378919
-0.00330276
9.50478e-05
-0.00060461
-0.00116279
-0.000886
-0.00120141
-0.00187564
-0.00226855
-0.00270197
-0.00304466
-0.0035728
-0.00395299
-0.00452342
-0.00485726
-0.0049138
-0.00496968
-0.00492729
-0.00478355
-0.00453092
-0.00409034
-0.00363725
0.000102875
-0.000603377
-0.00116388
-0.000891864
-0.00119972
-0.00188237
-0.00227048
-0.00270103
-0.00304584
-0.00356766
-0.00396499
-0.00452355
-0.00488146
-0.00494074
-0.00502936
-0.00503923
-0.00494257
-0.00476459
-0.00440244
-0.00397794
0.000110692
-0.000601416
-0.00116512
-0.000896903
-0.00119879
-0.00188827
-0.00227335
-0.00269868
-0.00304744
-0.0035621
-0.00397534
-0.00452528
-0.00490523
-0.0049735
-0.00509327
-0.00516286
-0.00511698
-0.00500775
-0.00472405
-0.00432794
0.000118309
-0.000598412
-0.00116658
-0.000900988
-0.00119874
-0.00189328
-0.0022772
-0.0026953
-0.00304869
-0.00355656
-0.0039853
-0.00452865
-0.00492883
-0.00501275
-0.00516233
-0.0052975
-0.00530781
-0.00526098
-0.00505352
-0.0046891
0.000125522
-0.000593992
-0.00116832
-0.000904023
-0.00119958
-0.00189749
-0.0022816
-0.00269155
-0.00304891
-0.00355134
-0.00399475
-0.00453341
-0.00495211
-0.00505933
-0.00523794
-0.00544258
-0.0055151
-0.00552491
-0.00538927
-0.00506109
0.000132111
-0.000587672
-0.00117042
-0.000906055
-0.00120121
-0.00190126
-0.00228584
-0.00268799
-0.00304774
-0.00354642
-0.00400398
-0.0045396
-0.00498101
-0.00511418
-0.00532208
-0.00559777
-0.00573799
-0.00579985
-0.0057296
-0.00544116
0.000137761
-0.000578958
-0.00117285
-0.000907199
-0.00120337
-0.00190514
-0.00228908
-0.00268499
-0.00304514
-0.0035413
-0.00401365
-0.00454754
-0.00501319
-0.00517938
-0.005417
-0.00576239
-0.00597465
-0.00608564
-0.00607292
-0.00582556
0.000142113
-0.000567431
-0.00117543
-0.000905584
-0.00120836
-0.0019101
-0.00229074
-0.0026827
-0.00304155
-0.00353535
-0.00402446
-0.00455832
-0.0050495
-0.00525657
-0.00552466
-0.00593491
-0.00622216
-0.00638195
-0.00641881
-0.00621134
0.000144828
-0.0005527
-0.00117788
-0.000905206
-0.00120957
-0.00191717
-0.00229067
-0.00268068
-0.00303803
-0.00352834
-0.00403719
-0.00457476
-0.00509158
-0.00534564
-0.00564546
-0.00611299
-0.00647661
-0.00668806
-0.0067683
-0.00659648
0.00014558
-0.000534433
-0.00117961
-0.000905423
-0.00120836
-0.00192658
-0.00228903
-0.00267794
-0.00303605
-0.00352068
-0.00405286
-0.0046001
-0.00514115
-0.00544543
-0.00577808
-0.00629456
-0.00673378
-0.00700217
-0.00712268
-0.00697964
0.000144074
-0.000512473
-0.00117965
-0.000907344
-0.00120445
-0.00193818
-0.00228678
-0.00267345
-0.00303657
-0.00351391
-0.00407259
-0.00463597
-0.00519798
-0.00555335
-0.00592116
-0.006479
-0.00699017
-0.00732106
-0.00748136
-0.00736015
0.000140075
-0.000486992
-0.00117672
-0.000911437
-0.00119765
-0.0019513
-0.00228575
-0.00266685
-0.00303999
-0.00351064
-0.00409694
-0.00468609
-0.00526172
-0.00566651
-0.00607366
-0.00666762
-0.00724398
-0.00764068
-0.00784203
-0.0077377
0.000133459
-0.000458628
-0.00116944
-0.000917883
-0.00118824
-0.00196486
-0.00228771
-0.00265841
-0.00304673
-0.00351346
-0.00412571
-0.00474289
-0.00533201
-0.00578216
-0.00623383
-0.00686265
-0.00749591
-0.00795735
-0.00820113
-0.00811152
0.000124276
-0.000428304
-0.0011567
-0.000927643
-0.00117703
-0.00197781
-0.00229368
-0.00264946
-0.00305718
-0.00352406
-0.00415885
-0.00480674
-0.00540836
-0.0058982
-0.00639884
-0.0070654
-0.00774878
-0.00826894
-0.00855478
-0.00847986
0.000112736
-0.000397048
-0.00113768
-0.000936416
-0.00116539
-0.00198968
-0.00230435
-0.00264203
-0.00307179
-0.00354327
-0.00419592
-0.00487613
-0.00549066
-0.00601359
-0.00656539
-0.00727514
-0.00800518
-0.0085756
-0.0089
-0.00884007
9.90991e-05
-0.00036609
-0.00111176
-0.00094398
-0.0011546
-0.00200063
-0.00232025
-0.0026382
-0.00309138
-0.00357097
-0.0042356
-0.00494955
-0.00557966
-0.00612868
-0.00673066
-0.00748941
-0.00826604
-0.00887902
-0.00923547
-0.00918912
8.3803e-05
-0.000336586
-0.0010791
-0.000948596
-0.00114491
-0.00201137
-0.00234188
-0.00263955
-0.00311653
-0.00360646
-0.00427837
-0.00502544
-0.00567622
-0.00624541
-0.00689295
-0.0077048
-0.00853065
-0.0091812
-0.00956157
-0.00952442
6.74912e-05
-0.0003093
-0.0010411
-0.000948968
-0.00113609
-0.00202259
-0.00237016
-0.00264716
-0.00314693
-0.00364938
-0.00432054
-0.00510145
-0.00578034
-0.0063666
-0.00705172
-0.00791758
-0.00879684
-0.00948344
-0.00988002
-0.00984482
5.08387e-05
-0.000284785
-0.000999824
-0.000944472
-0.00112638
-0.00203464
-0.00240616
-0.00266185
-0.00318194
-0.00369959
-0.00436319
-0.00517439
-0.00589071
-0.00649529
-0.00720803
-0.00812445
-0.00906097
-0.00978567
-0.010193
-0.0101509
3.4576e-05
-0.000263429
-0.00095735
-0.000934975
-0.00111463
-0.0020474
-0.00245045
-0.00268435
-0.0032208
-0.00375784
-0.00440794
-0.00524159
-0.00600445
-0.00663357
-0.00736471
-0.00832338
-0.0093183
-0.0100859
-0.0105023
-0.010445
1.91232e-05
-0.000245337
-0.000915647
-0.000921349
-0.00110024
-0.00206013
-0.00250298
-0.00271538
-0.00326227
-0.00382386
-0.00445747
-0.00530215
-0.0061172
-0.00678131
-0.00752551
-0.00851404
-0.00956406
-0.0103804
-0.0108085
-0.0107304
4.57835e-06
-0.000230201
-0.000876339
-0.000905501
-0.00108281
-0.00207176
-0.0025632
-0.00275583
-0.00330475
-0.00389664
-0.00451503
-0.00535744
-0.00622407
-0.00693561
-0.00769352
-0.00869834
-0.00979492
-0.010664
-0.0111102
-0.0110099
-8.81053e-06
-0.000217415
-0.000840834
-0.00088991
-0.0010624
-0.00208122
-0.00263026
-0.00280391
-0.00334595
-0.00397393
-0.00458406
-0.00541098
-0.00632145
-0.00709165
-0.00786979
-0.0088798
-0.0100098
-0.0109311
-0.0114038
-0.011285
-2.02968e-05
-0.000206282
-0.000810113
-0.000877315
-0.00104022
-0.00208723
-0.00270335
-0.00286007
-0.00338407
-0.00405357
-0.00466652
-0.00546738
-0.00640816
-0.00724386
-0.00805289
-0.00906197
-0.0102099
-0.0111777
-0.011684
-0.0115547
-3.09436e-05
-0.000196122
-0.000784534
-0.000870846
-0.0010183
-0.00208819
-0.00278086
-0.00292476
-0.0034187
-0.00413143
-0.00476089
-0.0055315
-0.00648546
-0.00738679
-0.00823873
-0.00924697
-0.0103985
-0.0114017
-0.0119453
-0.0118154
-4.13976e-05
-0.000186296
-0.000764015
-0.000873466
-0.000999295
-0.00208238
-0.00286023
-0.00299974
-0.00345077
-0.00420152
-0.00486347
-0.00560721
-0.00655685
-0.00751643
-0.00842159
-0.00943481
-0.0105794
-0.011604
-0.0121831
-0.0120617
-5.18716e-05
-0.000176493
-0.000747625
-0.000887507
-0.000986924
-0.00206879
-0.00293797
-0.00308688
-0.00348282
-0.0042592
-0.00496907
-0.00569572
-0.00662696
-0.0076312
-0.00859558
-0.0096234
-0.0107558
-0.0117872
-0.0123947
-0.0122874
-6.27908e-05
-0.00016697
-0.000733882
-0.000914235
-0.000985605
-0.00204775
-0.00300981
-0.00318663
-0.00351876
-0.00430233
-0.00507058
-0.00579526
-0.00669988
-0.00773156
-0.00875538
-0.00980879
-0.0109296
-0.0119552
-0.0125797
-0.0124874
-7.4691e-05
-0.000158648
-0.000722774
-0.000953547
-0.000999723
-0.00202099
-0.00307133
-0.00329725
-0.00356359
-0.00433202
-0.00516066
-0.00590159
-0.00677798
-0.00781922
-0.0088967
-0.00998556
-0.0111005
-0.0121116
-0.0127402
-0.0126588
-8.81024e-05
-0.000152894
-0.000715947
-0.0010035
-0.00103311
-0.00199197
-0.0031175
-0.00341483
-0.00362267
-0.0043527
-0.00523373
-0.0060083
-0.00686133
-0.00789628
-0.00901621
-0.0101472
-0.0112658
-0.0122593
-0.0128801
-0.0128017
-0.000103589
-0.000150884
-0.000705199
-0.00106177
-0.00108808
-0.0019664
-0.00314545
-0.00353324
-0.00369897
-0.00437002
-0.00528749
-0.00610836
-0.00694804
-0.00796471
-0.0091115
-0.010286
-0.0114197
-0.0123991
-0.0130039
-0.0129192
-0.000121781
-0.000154229
-0.000696189
-0.0011275
-0.00116495
-0.00195076
-0.00315587
-0.00364554
-0.00379156
-0.00439013
-0.00532277
-0.00619538
-0.00703474
-0.00802628
-0.00918202
-0.0103948
-0.0115533
-0.0125279
-0.0131148
-0.0130158
-0.000143257
-0.000164941
-0.00069055
-0.00119397
-0.00126208
-0.00195117
-0.00315219
-0.00374554
-0.0038964
-0.00441794
-0.00534174
-0.00626377
-0.00711661
-0.00808206
-0.00922949
-0.0104682
-0.0116564
-0.0126381
-0.0132122
-0.0130952
-0.000168759
-0.000184732
-0.000690947
-0.00125895
-0.00137589
-0.0019727
-0.00313958
-0.00382864
-0.00400801
-0.0044561
-0.00534736
-0.00630918
-0.00718718
-0.00813147
-0.00925693
-0.010505
-0.0117198
-0.0127183
-0.0132897
-0.0131573
-0.000199623
-0.000214882
-0.000699879
-0.00132181
-0.00150171
-0.00201808
-0.00312483
-0.00389283
-0.00412039
-0.0045052
-0.00534348
-0.00632873
-0.00723867
-0.00817086
-0.00926648
-0.0105067
-0.011738
-0.0127563
-0.0133356
-0.013196
-0.000237335
-0.000256482
-0.00071976
-0.00138285
-0.00163506
-0.00208757
-0.00311526
-0.00393919
-0.00422744
-0.0045638
-0.00533413
-0.00632143
-0.007263
-0.00819314
-0.00925711
-0.0104745
-0.0117089
-0.0127443
-0.0133376
-0.0132011
-0.000283191
-0.000310731
-0.000753069
-0.00144368
-0.00177226
-0.00217977
-0.00311672
-0.00397059
-0.00432401
-0.00462894
-0.00532278
-0.00628855
-0.00725346
-0.0081888
-0.00922359
-0.0104079
-0.0116313
-0.0126774
-0.0132876
-0.013161
-0.000339125
-0.000378544
-0.000802032
-0.00150646
-0.00191058
-0.00229265
-0.00313365
-0.00399098
-0.00440674
-0.00469679
-0.00531167
-0.00623267
-0.00720539
-0.00814752
-0.00915714
-0.0103025
-0.011503
-0.0125516
-0.0131787
-0.0130691
-0.000407148
-0.000460424
-0.000868373
-0.00157449
-0.0020481
-0.00242349
-0.00317024
-0.00400582
-0.00447412
-0.00476263
-0.00530109
-0.00615653
-0.00711605
-0.00805946
-0.0090467
-0.0101509
-0.0113192
-0.012361
-0.0130031
-0.0129161
-0.000489322
-0.000557119
-0.000953003
-0.00165167
-0.00218499
-0.00256905
-0.00322968
-0.00402198
-0.00452665
-0.00482157
-0.00528916
-0.00606252
-0.00698423
-0.00791602
-0.00887964
-0.00994152
-0.0110704
-0.0120961
-0.0127484
-0.0126875
-0.000587622
-0.000670124
-0.00105705
-0.00174122
-0.00232285
-0.00272677
-0.00331372
-0.00404673
-0.00456767
-0.00487047
-0.00527326
-0.00595198
-0.00680956
-0.00770941
-0.00864191
-0.00965786
-0.0107407
-0.0117413
-0.0123972
-0.0123637
-0.000704057
-0.000800513
-0.00118194
-0.00184685
-0.00246389
-0.00289491
-0.00342371
-0.00408773
-0.00460371
-0.00490911
-0.00525144
-0.0058253
-0.00659146
-0.00743227
-0.00831708
-0.00927781
-0.0103056
-0.0112712
-0.0119269
-0.0119203
-0.000840839
-0.000949092
-0.00132855
-0.0019723
-0.00261186
-0.00307266
-0.00355983
-0.00415351
-0.00464467
-0.00494185
-0.00522463
-0.00568388
-0.00632963
-0.00707654
-0.0078845
-0.00877281
-0.00972982
-0.0106451
-0.0112852
-0.0113006
-0.000999127
-0.00111839
-0.00149725
-0.00212094
-0.00277068
-0.0032611
-0.00372168
-0.00425099
-0.00470375
-0.00497946
-0.00519997
-0.00553503
-0.00602938
-0.00663438
-0.00731954
-0.00810144
-0.00895802
-0.00979714
-0.010406
-0.0104512
-0.00118079
-0.0013091
-0.00169079
-0.0022947
-0.0029456
-0.00346179
-0.00391012
-0.00438441
-0.0047939
-0.00503793
-0.00519183
-0.00539699
-0.00571331
-0.0061128
-0.00659586
-0.0071915
-0.00790469
-0.00863772
-0.00920385
-0.00928785
-0.00138677
-0.00152272
-0.00191103
-0.00249502
-0.00314267
-0.00367844
-0.00412667
-0.00455847
-0.00492481
-0.00513465
-0.00521923
-0.00529238
-0.00542225
-0.00557465
-0.00572408
-0.00597219
-0.00638054
-0.00691081
-0.00740547
-0.00759957
-0.00161528
-0.00176437
-0.00215592
-0.00272531
-0.00336492
-0.00391781
-0.004373
-0.00477774
-0.00510718
-0.0052818
-0.00530292
-0.00524089
-0.00516673
-0.00509735
-0.0049158
-0.00455217
-0.0041236
-0.00384399
-0.00385168
-0.00401006
-0.00186773
-0.0020348
-0.00242576
-0.00298694
-0.00361565
-0.0041855
-0.00465246
-0.00504685
-0.00534819
-0.00549188
-0.00546336
-0.00527577
-0.00495342
-0.00457793
-0.00429339
-0.00394906
-0.00308097
-0.00148134
0.000401905
0.00190596
-0.00214874
-0.00232911
-0.00272197
-0.00327829
-0.00389812
-0.00448388
-0.00496622
-0.00536493
-0.00564338
-0.0057518
-0.00567282
-0.00542658
-0.00487848
-0.00365033
-0.00191044
-3.75346e-05
0.00172726
0.00333382
0.00464619
0.00533303
-0.00246041
-0.00264593
-0.00304484
-0.00359479
-0.00421396
-0.00480805
-0.00530778
-0.00570665
-0.00595634
-0.00597742
-0.00562224
-0.00456873
-0.00294995
-0.00110161
0.000706911
0.0023723
0.00385854
0.00512327
0.00602996
0.00628264
-0.00279574
-0.0029878
-0.00339083
-0.00393429
-0.00455344
-0.00514609
-0.00564511
-0.00598957
-0.0060739
-0.00566626
-0.00461173
-0.00312471
-0.0014291
0.000279521
0.00193635
0.00352245
0.00499188
0.00623514
0.0070591
0.00715683
-0.00315056
-0.00335417
-0.00375514
-0.00429078
-0.00489336
-0.00546156
-0.00588631
-0.00603958
-0.00573243
-0.00489323
-0.00361676
-0.00206812
-0.000437814
0.00122494
0.00288807
0.00449678
0.00597361
0.00719388
0.00795375
0.00794818
-0.00352222
-0.00373601
-0.00413236
-0.00464652
-0.00520188
-0.00568375
-0.00593809
-0.00579775
-0.005211
-0.00420277
-0.00285233
-0.00130833
0.000336568
0.00201867
0.00369797
0.00531153
0.00677685
0.00796297
0.00866515
0.00857749
-0.00390029
-0.00412054
-0.00450621
-0.00498087
-0.00544658
-0.00577189
-0.00580312
-0.00545981
-0.00472893
-0.00363798
-0.00226377
-0.00069586
0.000975868
0.00267923
0.00436046
0.00596276
0.00740277
0.00854853
0.00919531
0.00903735
-0.00427181
-0.00449243
-0.00485047
-0.00526332
-0.00561083
-0.00575645
-0.00561035
-0.00513212
-0.00430923
-0.00317042
-0.00177585
-0.000193955
0.00149042
0.00320172
0.00488045
0.00646862
0.00788301
0.00899227
0.00959315
0.00938169
-0.004623
-0.00483514
-0.00514286
-0.00547162
-0.00570432
-0.00572617
-0.00545597
-0.00486447
-0.0039611
-0.00277553
-0.00135695
0.000228906
0.00191006
0.0036179
0.00528931
0.00686423
0.00825604
0.00933433
0.00989837
0.00964648
-0.004936
-0.00513402
-0.00537395
-0.00560157
-0.00573415
-0.00567727
-0.00534771
-0.00469228
-0.00371881
-0.00247335
-0.00101744
0.000582541
0.0022597
0.00395563
0.005616
0.00717673
0.00854905
0.00960418
0.0101419
0.00986116
-0.00518766
-0.00537478
-0.00555947
-0.00569447
-0.00572737
-0.00559434
-0.00522495
-0.00456392
-0.00358576
-0.00232038
-0.000831606
0.000805915
0.00251736
0.00423546
0.00589968
0.00744819
0.00880436
0.00984449
0.0103686
0.0100756
-0.00535095
-0.00553866
-0.00570677
-0.00581587
-0.00580448
-0.00560352
-0.00515462
-0.00442935
-0.00343439
-0.0021905
-0.000735594
0.000875485
0.00258112
0.00431461
0.00600832
0.00759089
0.0089729
0.0100229
0.0105442
0.0102384
0.00740028
0.0028012
-0.00424837
-0.00929238
-0.0102642
-0.00888694
-0.00728591
-0.0061828
-0.00554574
-0.00518914
-0.00498551
-0.00488415
-0.00486189
-0.00489039
-0.00494268
-0.00500428
-0.00506839
-0.00512924
-0.0051837
-0.00523226
-0.00527614
-0.00531553
-0.00535115
-0.00538529
-0.00542054
-0.00545836
-0.00549889
-0.00554154
-0.00558638
-0.00563455
-0.00568669
-0.00574175
-0.0057978
-0.00585365
-0.00590876
-0.00596218
-0.00601249
-0.00605889
-0.0061013
-0.00614008
-0.00617536
-0.00620769
-0.00623823
-0.00626859
-0.00629967
-0.00633155
-0.00636397
-0.00639675
-0.00642922
-0.00646061
-0.00649041
-0.0065189
-0.00654644
-0.00657328
-0.0065995
-0.00662548
-0.00665168
-0.0066782
-0.00670452
-0.00672998
-0.00675423
-0.00677741
-0.00679996
-0.00682208
-0.00684365
-0.00686447
-0.0068847
-0.00690463
-0.00692434
-0.00694354
-0.00696209
-0.00698017
-0.00699813
-0.00701599
-0.00703361
-0.00705085
-0.00706765
-0.00708401
-0.00710006
-0.00711626
-0.00713292
-0.00714988
-0.00716635
-0.00718172
-0.00719614
-0.00721051
-0.00722546
-0.00724073
-0.00725551
-0.00726911
-0.0072816
-0.00729335
-0.00730475
-0.00731569
-0.00732615
-0.00733591
-0.00734477
-0.00735212
-0.00735783
-0.00736228
-0.00736627
-0.00736988
-0.00737216
-0.00737216
-0.00736989
-0.0073665
-0.00736275
-0.00735846
-0.0073524
-0.00734405
-0.00733387
-0.00732307
-0.00731199
-0.00729981
-0.00728568
-0.00726967
-0.00725304
-0.00723611
-0.00721838
-0.00719887
-0.00717808
-0.00715692
-0.00713529
-0.00711269
-0.00708863
-0.00706426
-0.00703893
-0.00701323
-0.00698619
-0.00695897
-0.00693049
-0.00690161
-0.00687171
-0.00684129
-0.00681006
-0.0067779
-0.00674525
-0.00671146
-0.00667742
-0.00664205
-0.00660647
-0.00656959
-0.00653241
-0.0064941
-0.00645525
-0.0064155
-0.00637501
-0.00633378
-0.00629173
-0.00624903
-0.0062055
-0.00616127
-0.00611634
-0.00607064
-0.00602432
-0.00597717
-0.00592944
-0.00588091
-0.00583182
-0.00578198
-0.00573157
-0.00568049
-0.00562879
-0.00557657
-0.00552361
-0.00547034
-0.00541609
-0.00536174
-0.00530622
-0.00525074
-0.00519401
-0.0051373
-0.00507944
-0.00502154
-0.00496265
-0.00490362
-0.00484374
-0.00478351
-0.00472265
-0.00466096
-0.00459914
-0.00453578
-0.00447288
-0.00440813
-0.00434357
-0.00427825
-0.00421136
-0.00414578
-0.00407722
-0.00400978
-0.00394184
-0.00387069
-0.00380325
-0.00373122
-0.0036594
-0.00359022
-0.00351653
-0.00344371
-0.0033839
-0.00332607
0.00668271
0.00261456
-0.00417451
-0.00915332
-0.0101799
-0.00884721
-0.00726112
-0.00616527
-0.0055331
-0.00517954
-0.00497775
-0.00487757
-0.00485616
-0.00488531
-0.00493812
-0.00500016
-0.00506465
-0.00512583
-0.00518059
-0.0052294
-0.00527352
-0.00531312
-0.00534893
-0.00538322
-0.00541862
-0.00545657
-0.00549722
-0.00553998
-0.00558492
-0.00563318
-0.0056854
-0.00574052
-0.00579665
-0.00585255
-0.00590771
-0.00596118
-0.00601154
-0.00605797
-0.00610042
-0.00613924
-0.00617456
-0.00620693
-0.0062375
-0.00626789
-0.00629899
-0.0063309
-0.00636335
-0.00639614
-0.00642863
-0.00646004
-0.00648986
-0.00651836
-0.00654592
-0.00657278
-0.00659901
-0.00662502
-0.00665123
-0.00667776
-0.00670409
-0.00672956
-0.00675383
-0.00677702
-0.00679958
-0.00682172
-0.00684329
-0.00686412
-0.00688437
-0.0069043
-0.00692402
-0.00694323
-0.00696179
-0.00697988
-0.00699784
-0.00701572
-0.00703334
-0.00705059
-0.0070674
-0.00708376
-0.00709982
-0.00711602
-0.00713269
-0.00714966
-0.00716614
-0.00718151
-0.00719594
-0.00721032
-0.00722527
-0.00724054
-0.00725533
-0.00726893
-0.00728144
-0.00729319
-0.0073046
-0.00731554
-0.00732601
-0.00733577
-0.00734463
-0.00735199
-0.00735771
-0.00736216
-0.00736616
-0.00736977
-0.00737206
-0.00737206
-0.00736979
-0.00736641
-0.00736266
-0.00735838
-0.00735232
-0.00734398
-0.00733381
-0.007323
-0.00731193
-0.00729975
-0.00728563
-0.00726961
-0.00725299
-0.00723606
-0.00721833
-0.00719883
-0.00717804
-0.00715688
-0.00713526
-0.00711266
-0.0070886
-0.00706423
-0.00703891
-0.00701321
-0.00698617
-0.00695895
-0.00693047
-0.00690159
-0.00687169
-0.00684128
-0.00681004
-0.00677789
-0.00674523
-0.00671145
-0.00667741
-0.00664204
-0.00660646
-0.00656958
-0.0065324
-0.00649409
-0.00645525
-0.0064155
-0.00637501
-0.00633377
-0.00629172
-0.00624902
-0.0062055
-0.00616127
-0.00611634
-0.00607064
-0.00602431
-0.00597717
-0.00592944
-0.00588091
-0.00583182
-0.00578198
-0.00573157
-0.00568049
-0.00562879
-0.00557657
-0.00552361
-0.00547034
-0.00541609
-0.00536174
-0.00530622
-0.00525074
-0.00519401
-0.0051373
-0.00507944
-0.00502154
-0.00496265
-0.00490362
-0.00484374
-0.00478351
-0.00472265
-0.00466096
-0.00459914
-0.00453578
-0.00447288
-0.00440813
-0.00434357
-0.00427825
-0.00421136
-0.00414578
-0.00407722
-0.00400978
-0.00394184
-0.00387069
-0.00380325
-0.00373122
-0.0036594
-0.00359022
-0.00351653
-0.00344371
-0.0033839
-0.00332607
0.00592283
0.00242051
-0.00401131
-0.0088917
-0.0100273
-0.00878751
-0.00722954
-0.00614104
-0.00551402
-0.00516494
-0.00496655
-0.00486878
-0.00484904
-0.00487934
-0.00493295
-0.00499559
-0.00506055
-0.00512212
-0.00517721
-0.00522633
-0.00527071
-0.00531055
-0.00534656
-0.00538104
-0.0054166
-0.0054547
-0.00549547
-0.00553835
-0.0055834
-0.00563176
-0.00568407
-0.00573928
-0.00579548
-0.00585146
-0.00590668
-0.0059602
-0.00601061
-0.00605708
-0.00609956
-0.00613841
-0.00617376
-0.00620616
-0.00623677
-0.00626719
-0.00629833
-0.00633027
-0.00636274
-0.00639555
-0.00642806
-0.00645948
-0.00648932
-0.00651784
-0.00654542
-0.00657229
-0.00659854
-0.00662456
-0.00665079
-0.00667734
-0.00670368
-0.00672916
-0.00675344
-0.00677665
-0.00679922
-0.00682136
-0.00684295
-0.00686379
-0.00688404
-0.00690399
-0.00692371
-0.00694293
-0.0069615
-0.0069796
-0.00699757
-0.00701545
-0.00703308
-0.00705033
-0.00706715
-0.00708353
-0.00709959
-0.0071158
-0.00713247
-0.00714945
-0.00716593
-0.00718131
-0.00719575
-0.00721013
-0.00722508
-0.00724036
-0.00725516
-0.00726877
-0.00728128
-0.00729303
-0.00730445
-0.00731539
-0.00732587
-0.00733564
-0.00734451
-0.00735187
-0.00735759
-0.00736205
-0.00736605
-0.00736967
-0.00737196
-0.00737197
-0.00736971
-0.00736633
-0.00736258
-0.0073583
-0.00735224
-0.00734391
-0.00733374
-0.00732294
-0.00731187
-0.0072997
-0.00728557
-0.00726956
-0.00725294
-0.00723602
-0.00721829
-0.00719879
-0.007178
-0.00715684
-0.00713522
-0.00711263
-0.00708857
-0.0070642
-0.00703888
-0.00701318
-0.00698614
-0.00695892
-0.00693045
-0.00690157
-0.00687167
-0.00684126
-0.00681003
-0.00677787
-0.00674522
-0.00671143
-0.00667739
-0.00664203
-0.00660645
-0.00656957
-0.0065324
-0.00649408
-0.00645524
-0.00641549
-0.006375
-0.00633377
-0.00629172
-0.00624902
-0.0062055
-0.00616127
-0.00611634
-0.00607064
-0.00602431
-0.00597716
-0.00592944
-0.00588091
-0.00583181
-0.00578197
-0.00573156
-0.00568049
-0.00562879
-0.00557657
-0.00552361
-0.00547034
-0.00541609
-0.00536174
-0.00530622
-0.00525074
-0.00519401
-0.0051373
-0.00507944
-0.00502153
-0.00496265
-0.00490362
-0.00484374
-0.00478351
-0.00472265
-0.00466096
-0.00459914
-0.00453578
-0.00447288
-0.00440813
-0.00434357
-0.00427825
-0.00421136
-0.00414578
-0.00407722
-0.00400978
-0.00394184
-0.00387069
-0.00380325
-0.00373122
-0.0036594
-0.00359022
-0.00351653
-0.00344371
-0.0033839
-0.00332606
0.00520338
0.00224658
-0.00378122
-0.00854601
-0.00981504
-0.00870245
-0.00718467
-0.00610481
-0.00548436
-0.00514225
-0.00494969
-0.00485619
-0.00483933
-0.0048715
-0.00492634
-0.00498983
-0.00505543
-0.00511752
-0.00517303
-0.00522252
-0.00526724
-0.00530738
-0.00534368
-0.00537841
-0.00541419
-0.00545247
-0.00549342
-0.00553645
-0.00558164
-0.00563013
-0.00568256
-0.00573789
-0.00579419
-0.00585026
-0.00590556
-0.00595916
-0.00600962
-0.00605614
-0.00609866
-0.00613753
-0.00617292
-0.00620535
-0.00623599
-0.00626645
-0.00629763
-0.00632961
-0.00636211
-0.00639496
-0.00642748
-0.00645893
-0.00648878
-0.00651731
-0.00654489
-0.00657178
-0.00659806
-0.0066241
-0.00665034
-0.00667691
-0.00670326
-0.00672876
-0.00675305
-0.00677626
-0.00679884
-0.006821
-0.0068426
-0.00686345
-0.00688371
-0.00690367
-0.00692341
-0.00694263
-0.00696121
-0.00697932
-0.0069973
-0.00701518
-0.00703282
-0.00705008
-0.0070669
-0.00708329
-0.00709936
-0.00711557
-0.00713225
-0.00714923
-0.00716572
-0.0071811
-0.00719555
-0.00720994
-0.0072249
-0.00724018
-0.00725498
-0.0072686
-0.00728111
-0.00729288
-0.0073043
-0.00731525
-0.00732573
-0.0073355
-0.00734437
-0.00735174
-0.00735747
-0.00736193
-0.00736594
-0.00736956
-0.00737186
-0.00737187
-0.00736961
-0.00736624
-0.00736249
-0.00735822
-0.00735217
-0.00734384
-0.00733367
-0.00732287
-0.00731181
-0.00729964
-0.00728552
-0.00726951
-0.00725289
-0.00723597
-0.00721824
-0.00719874
-0.00717796
-0.0071568
-0.00713519
-0.00711259
-0.00708854
-0.00706417
-0.00703885
-0.00701315
-0.00698612
-0.0069589
-0.00693043
-0.00690155
-0.00687165
-0.00684124
-0.00681001
-0.00677786
-0.0067452
-0.00671142
-0.00667738
-0.00664202
-0.00660644
-0.00656956
-0.00653239
-0.00649407
-0.00645523
-0.00641548
-0.00637499
-0.00633376
-0.00629171
-0.00624901
-0.00620549
-0.00616126
-0.00611633
-0.00607063
-0.00602431
-0.00597716
-0.00592943
-0.00588091
-0.00583181
-0.00578197
-0.00573156
-0.00568049
-0.00562879
-0.00557657
-0.00552361
-0.00547034
-0.00541609
-0.00536174
-0.00530622
-0.00525074
-0.00519401
-0.0051373
-0.00507944
-0.00502153
-0.00496265
-0.00490362
-0.00484374
-0.00478351
-0.00472265
-0.00466096
-0.00459914
-0.00453578
-0.00447288
-0.00440813
-0.00434357
-0.00427825
-0.00421135
-0.00414578
-0.00407722
-0.00400978
-0.00394184
-0.00387069
-0.00380325
-0.00373122
-0.0036594
-0.00359022
-0.00351653
-0.00344371
-0.00338389
-0.00332605
0.00451784
0.00206578
-0.0035319
-0.00817006
-0.00957626
-0.00860533
-0.00713304
-0.00605973
-0.00544479
-0.00511083
-0.004926
-0.00483847
-0.00482576
-0.00486066
-0.0049173
-0.00498203
-0.00504852
-0.00511128
-0.00516736
-0.00521733
-0.00526249
-0.00530305
-0.00533975
-0.00537485
-0.00541094
-0.00544949
-0.00549066
-0.0055339
-0.0055793
-0.00562799
-0.0056806
-0.00573609
-0.00579254
-0.00584876
-0.00590418
-0.00595788
-0.00600843
-0.00605501
-0.00609758
-0.00613648
-0.00617189
-0.00620435
-0.00623504
-0.00626555
-0.00629679
-0.00632884
-0.0063614
-0.00639429
-0.00642685
-0.00645831
-0.00648817
-0.0065167
-0.0065443
-0.0065712