/*--------------------------------*- C++ -*----------------------------------*\
| =========                 |                                                 |
| \\      /  F ield         | OpenFOAM: The Open Source CFD Toolbox           |
|  \\    /   O peration     | Version:  v2012                                 |
|   \\  /    A nd           | Website:  www.openfoam.com                      |
|    \\/     M anipulation  |                                                 |
\*---------------------------------------------------------------------------*/
FoamFile
{
    version     2.0;
    format      ascii;
    class       surfaceScalarField;
    location    "1.05";
    object      phi;
}
// * * * * * * * * * * * * * * * * * * * * * * * * * * * * * * * * * * * * * //

dimensions      [0 3 -1 0 0 0 0];
oriented        oriented;


internalField   nonuniform List<scalar> 
34900
(
1.1796e-06
1.05114e-07
1.16734e-06
1.76162e-07
1.16681e-06
-1.07093e-07
1.15762e-06
-3.63699e-08
1.16406e-06
4.1651e-08
1.15463e-06
1.92326e-08
1.16073e-06
-5.20395e-10
1.14932e-06
-8.85862e-08
1.15913e-06
9.35483e-09
1.14804e-06
-8.21886e-08
1.1594e-06
3.82474e-08
1.14935e-06
-3.28289e-08
1.15887e-06
4.06048e-08
1.14996e-06
-1.50544e-09
1.15873e-06
6.50078e-08
1.14777e-06
1.6024e-08
1.15637e-06
7.52681e-08
1.14337e-06
2.31569e-08
1.1467e-06
9.18445e-08
3.3134e-08
1.11107e-06
1.23335e-06
9.60214e-08
1.2246e-06
1.84916e-07
1.22244e-06
-1.04939e-07
1.21438e-06
-2.83086e-08
1.21859e-06
3.74476e-08
1.21228e-06
2.5537e-08
1.21551e-06
-3.74454e-09
1.20717e-06
-8.02501e-08
1.21304e-06
3.48071e-09
1.20644e-06
-7.55804e-08
1.21218e-06
3.2505e-08
1.20939e-06
-3.0038e-08
1.21067e-06
3.93258e-08
1.21227e-06
-3.10785e-09
1.20856e-06
6.87161e-08
1.21364e-06
1.09478e-08
1.20287e-06
8.60335e-08
1.21302e-06
1.30085e-08
1.1889e-06
1.15962e-07
2.75134e-08
1.19452e-06
1.28799e-06
9.08135e-08
1.28529e-06
1.87618e-07
1.27954e-06
-9.91902e-08
1.27521e-06
-2.39737e-08
1.27477e-06
3.78876e-08
1.27419e-06
2.61087e-08
1.27243e-06
-1.98423e-09
1.26991e-06
-7.77261e-08
1.2694e-06
3.9916e-09
1.26969e-06
-7.58698e-08
1.26808e-06
3.41096e-08
1.273e-06
-3.49538e-08
1.26708e-06
4.52429e-08
1.27513e-06
-1.11536e-08
1.26659e-06
7.72539e-08
1.27461e-06
2.92462e-09
1.26473e-06
9.59219e-08
1.26972e-06
8.01104e-09
1.2588e-06
1.2688e-07
3.99573e-08
1.24636e-06
1.34428e-06
9.06335e-08
1.34863e-06
1.83266e-07
1.33906e-06
-8.9616e-08
1.33839e-06
-2.33066e-08
1.3336e-06
4.26857e-08
1.33816e-06
2.15441e-08
1.33267e-06
3.50246e-09
1.33458e-06
-7.96321e-08
1.32992e-06
8.65115e-09
1.33389e-06
-7.98427e-08
1.32941e-06
3.85892e-08
1.33607e-06
-4.1609e-08
1.33019e-06
5.11232e-08
1.33656e-06
-1.75295e-08
1.33181e-06
8.20048e-08
1.33537e-06
-6.37707e-10
1.33192e-06
9.93801e-08
1.33048e-06
9.44971e-09
1.32696e-06
1.30396e-07
5.62827e-08
1.31064e-06
1.40369e-06
9.52996e-08
1.41384e-06
1.7311e-07
1.40201e-06
-7.77796e-08
1.40327e-06
-2.45716e-08
1.39636e-06
4.95975e-08
1.40343e-06
1.44762e-08
1.39733e-06
9.60424e-09
1.40055e-06
-8.28515e-08
1.39539e-06
1.38081e-08
1.3992e-06
-8.36556e-08
1.39579e-06
4.1998e-08
1.40054e-06
-4.63554e-08
1.39757e-06
5.40909e-08
1.40078e-06
-2.07323e-08
1.39956e-06
8.32201e-08
1.40031e-06
-1.38961e-09
1.39958e-06
1.00112e-07
1.39589e-06
1.31399e-08
1.39437e-06
1.31913e-07
7.24813e-08
1.37817e-06
1.46773e-06
1.03243e-07
1.48088e-06
1.59962e-07
1.4693e-06
-6.61981e-08
1.47046e-06
-2.57312e-08
1.46406e-06
5.60008e-08
1.47108e-06
7.44967e-09
1.46677e-06
1.39161e-08
1.46924e-06
-8.53175e-08
1.46546e-06
1.75813e-08
1.46762e-06
-8.58084e-08
1.46596e-06
4.36561e-08
1.4686e-06
-4.8994e-08
1.46759e-06
5.50992e-08
1.46897e-06
-2.21115e-08
1.46917e-06
8.30125e-08
1.46876e-06
-9.76451e-10
1.46906e-06
9.9816e-08
1.46407e-06
1.81294e-08
1.46396e-06
1.32022e-07
8.85892e-08
1.44785e-06
1.53731e-06
1.12148e-07
1.55056e-06
1.46717e-07
1.54123e-06
-5.68696e-08
1.54119e-06
-2.56917e-08
1.53674e-06
6.0448e-08
1.54257e-06
1.62183e-09
1.54054e-06
1.59494e-08
1.54189e-06
-8.66727e-08
1.53946e-06
2.00151e-08
1.54019e-06
-8.6539e-08
1.53944e-06
4.4404e-08
1.54075e-06
-5.03014e-08
1.54046e-06
5.53874e-08
1.54089e-06
-2.25389e-08
1.54166e-06
8.22399e-08
1.54035e-06
3.29383e-10
1.54148e-06
9.86879e-08
1.53518e-06
2.44298e-08
1.5363e-06
1.30906e-07
1.0431e-07
1.52058e-06
1.61229e-06
1.19982e-07
1.62382e-06
1.35187e-07
1.61736e-06
-5.04067e-08
1.61624e-06
-2.45672e-08
1.61378e-06
6.29022e-08
1.61844e-06
-3.0367e-09
1.61794e-06
1.64485e-08
1.61864e-06
-8.73664e-08
1.61694e-06
2.17109e-08
1.61685e-06
-8.64444e-08
1.61636e-06
4.48932e-08
1.61682e-06
-5.07614e-08
1.61675e-06
5.54522e-08
1.61643e-06
-2.22142e-08
1.61764e-06
8.10304e-08
1.61535e-06
2.61723e-09
1.61729e-06
9.6751e-08
1.60974e-06
3.19718e-08
1.6117e-06
1.28951e-07
1.19157e-07
1.59685e-06
1.69186e-06
1.257e-07
1.70118e-06
1.25868e-07
1.69703e-06
-4.62577e-08
1.69556e-06
-2.30955e-08
1.69446e-06
6.39924e-08
1.69838e-06
-6.94741e-09
1.69852e-06
1.63044e-08
1.69898e-06
-8.78244e-08
1.69766e-06
2.3027e-08
1.69715e-06
-8.59295e-08
1.69676e-06
4.52763e-08
1.69657e-06
-5.05688e-08
1.6967e-06
5.53265e-08
1.69561e-06
-2.11286e-08
1.69733e-06
7.93157e-08
1.69399e-06
5.95694e-09
1.69667e-06
9.40662e-08
1.68807e-06
4.05726e-08
1.69043e-06
1.26588e-07
1.32683e-07
1.67691e-06
1.7752e-06
1.29226e-07
1.78264e-06
1.18428e-07
1.77985e-06
-4.34676e-08
1.77869e-06
-2.19417e-08
1.77837e-06
6.43173e-08
1.78185e-06
-1.04265e-08
1.78208e-06
1.60662e-08
1.78249e-06
-8.8226e-08
1.78148e-06
2.40372e-08
1.78076e-06
-8.5211e-08
1.7806e-06
4.54352e-08
1.77986e-06
-4.9828e-08
1.78033e-06
5.4858e-08
1.77846e-06
-1.92623e-08
1.7808e-06
7.69766e-08
1.77641e-06
1.03461e-08
1.77973e-06
9.07455e-08
1.77037e-06
4.99369e-08
1.77267e-06
1.24281e-07
1.44498e-07
1.76086e-06
1.86198e-06
1.30992e-07
1.86809e-06
1.12317e-07
1.86589e-06
-4.12607e-08
1.86535e-06
-2.14005e-08
1.86544e-06
6.42218e-08
1.86862e-06
-1.36091e-08
1.86873e-06
1.59576e-08
1.86909e-06
-8.85849e-08
1.86843e-06
2.47009e-08
1.86761e-06
-8.43916e-08
1.86786e-06
4.51787e-08
1.86665e-06
-4.86144e-08
1.86767e-06
5.38373e-08
1.86503e-06
-1.6622e-08
1.86811e-06
7.39016e-08
1.86276e-06
1.56886e-08
1.86653e-06
8.69803e-08
1.85681e-06
5.96604e-08
1.85859e-06
1.22501e-07
1.54298e-07
1.84879e-06
1.95233e-06
1.31501e-07
1.95756e-06
1.07091e-07
1.9555e-06
-3.9209e-08
1.95557e-06
-2.14661e-08
1.95593e-06
6.38573e-08
1.95886e-06
-1.65361e-08
1.9588e-06
1.6021e-08
1.95906e-06
-8.88477e-08
1.95879e-06
2.49686e-08
1.95789e-06
-8.34865e-08
1.95873e-06
4.4336e-08
1.95708e-06
-4.69628e-08
1.95885e-06
5.20701e-08
1.95547e-06
-1.32411e-08
1.95933e-06
7.00409e-08
1.95323e-06
2.17834e-08
1.95716e-06
8.30512e-08
1.94755e-06
6.9272e-08
1.9484e-06
1.21648e-07
1.61941e-07
1.94076e-06
2.04656e-06
1.3113e-07
2.05117e-06
1.02477e-07
2.04912e-06
-3.71536e-08
2.04965e-06
-2.20028e-08
2.05023e-06
6.32803e-08
2.05292e-06
-1.92242e-08
2.05273e-06
1.62148e-08
2.05282e-06
-8.894e-08
2.05298e-06
2.48048e-08
2.05193e-06
-8.24359e-08
2.05348e-06
4.27852e-08
2.05137e-06
-4.48545e-08
2.05402e-06
4.94213e-08
2.04996e-06
-9.17759e-09
2.05456e-06
6.5445e-08
2.048e-06
2.83374e-08
2.05174e-06
7.93106e-08
2.04271e-06
7.83027e-08
2.04239e-06
1.21972e-07
1.67487e-07
2.03684e-06
2.14501e-06
1.3012e-07
2.14917e-06
9.83177e-08
2.1471e-06
-3.50814e-08
2.14795e-06
-2.28542e-08
2.14873e-06
6.25035e-08
2.15119e-06
-2.16866e-08
2.15095e-06
1.64518e-08
2.15079e-06
-8.87821e-08
2.15142e-06
2.41749e-08
2.15012e-06
-8.11267e-08
2.15245e-06
4.04504e-08
2.14983e-06
-4.22332e-08
2.15341e-06
4.58404e-08
2.14876e-06
-4.52503e-09
2.15392e-06
6.02831e-08
2.14726e-06
3.49951e-08
2.15043e-06
7.61426e-08
2.14237e-06
8.63574e-08
2.1408e-06
1.23544e-07
1.71187e-07
2.1371e-06
2.24799e-06
1.2862e-07
2.25179e-06
9.45189e-08
2.24975e-06
-3.30439e-08
2.25077e-06
-2.38782e-08
2.25176e-06
6.15136e-08
2.254e-06
-2.39264e-08
2.25384e-06
1.66132e-08
2.25335e-06
-8.82913e-08
2.2545e-06
2.30285e-08
2.25279e-06
-7.94236e-08
2.25595e-06
3.72897e-08
2.25276e-06
-3.90411e-08
2.25723e-06
4.13714e-08
2.25214e-06
5.65547e-10
2.25759e-06
5.48336e-08
2.2512e-06
4.13831e-08
2.25344e-06
7.39061e-08
2.24663e-06
9.31702e-08
2.24391e-06
1.26262e-07
1.73437e-07
2.24166e-06
2.35577e-06
1.26729e-07
2.35925e-06
9.10318e-08
2.35733e-06
-3.11194e-08
2.3584e-06
-2.49463e-08
2.35964e-06
6.02738e-08
2.36163e-06
-2.59235e-08
2.36169e-06
1.65604e-08
2.36078e-06
-8.73814e-08
2.36251e-06
2.12968e-08
2.36029e-06
-7.72004e-08
2.36428e-06
3.32916e-08
2.36051e-06
-3.52624e-08
2.36573e-06
3.61518e-08
2.36042e-06
5.87041e-09
2.36581e-06
4.94488e-08
2.36003e-06
4.71573e-08
2.36107e-06
7.28689e-08
2.35559e-06
9.86501e-08
2.35198e-06
1.29866e-07
1.7471e-07
2.35071e-06
2.46862e-06
1.24505e-07
2.47181e-06
8.78458e-08
2.47009e-06
-2.94004e-08
2.47108e-06
-2.59378e-08
2.47263e-06
5.8724e-08
2.47433e-06
-2.76285e-08
2.47475e-06
1.61475e-08
2.47333e-06
-8.59659e-08
2.47572e-06
1.89029e-08
2.47289e-06
-7.43667e-08
2.4777e-06
2.84844e-08
2.47339e-06
-3.09592e-08
2.47914e-06
3.0405e-08
2.47391e-06
1.11e-08
2.47886e-06
4.45025e-08
2.47397e-06
5.20418e-08
2.47369e-06
7.31564e-08
2.46943e-06
1.02905e-07
2.46533e-06
1.33969e-07
1.75488e-07
2.46455e-06
2.58682e-06
1.21978e-07
2.58968e-06
8.4986e-08
2.58827e-06
-2.79906e-08
2.58907e-06
-2.67336e-08
2.59101e-06
5.67812e-08
2.59235e-06
-2.89651e-08
2.59326e-06
1.5234e-08
2.59126e-06
-8.3964e-08
2.59438e-06
1.57814e-08
2.5909e-06
-7.08882e-08
2.59643e-06
2.29528e-08
2.59176e-06
-2.6291e-08
2.59775e-06
2.44229e-08
2.59292e-06
1.59285e-08
2.59709e-06
4.0334e-08
2.59327e-06
5.58551e-08
2.59171e-06
7.47187e-08
2.58839e-06
1.06225e-07
2.58423e-06
1.38127e-07
1.76184e-07
2.58354e-06
2.71065e-06
1.19156e-07
2.71313e-06
8.25079e-08
2.71214e-06
-2.70062e-08
2.71262e-06
-2.72135e-08
2.71506e-06
5.43417e-08
2.71594e-06
-2.98396e-08
2.71748e-06
1.36953e-08
2.71483e-06
-8.13122e-08
2.71871e-06
1.19006e-08
2.71462e-06
-6.68045e-08
2.72072e-06
1.68519e-08
2.71594e-06
-2.15091e-08
2.72183e-06
1.85336e-08
2.71772e-06
2.00394e-08
2.72086e-06
3.7196e-08
2.71817e-06
5.85425e-08
2.71555e-06
7.73389e-08
2.71278e-06
1.08996e-07
2.70895e-06
1.41956e-07
1.77068e-07
2.70807e-06
2.84039e-06
1.16031e-07
2.84241e-06
8.04915e-08
2.84198e-06
-2.65762e-08
2.84202e-06
-2.72552e-08
2.84507e-06
5.12914e-08
2.84539e-06
-3.01567e-08
2.84765e-06
1.1435e-08
2.84432e-06
-7.79841e-08
2.84893e-06
7.2875e-09
2.84437e-06
-6.22438e-08
2.85081e-06
1.04132e-08
2.84624e-06
-1.69332e-08
2.8517e-06
1.30666e-08
2.84857e-06
2.31679e-08
2.85056e-06
3.52139e-08
2.84891e-06
6.01936e-08
2.84556e-06
8.06802e-08
2.84297e-06
1.1159e-07
2.83969e-06
1.4524e-07
1.7822e-07
2.83853e-06
2.97634e-06
1.12588e-07
2.9778e-06
7.90349e-08
2.97806e-06
-2.68414e-08
2.97754e-06
-2.67376e-08
2.98132e-06
4.75178e-08
2.981e-06
-2.98379e-08
2.98403e-06
8.40035e-09
2.98006e-06
-7.40118e-08
2.9853e-06
2.04982e-09
2.98048e-06
-5.7429e-08
2.98697e-06
3.92785e-09
2.98294e-06
-1.29059e-08
2.9877e-06
8.30693e-09
2.98571e-06
2.51572e-08
2.98658e-06
3.43467e-08
2.98574e-06
6.10281e-08
2.98208e-06
8.43444e-08
2.97938e-06
1.14292e-07
2.97664e-06
1.47983e-07
1.7956e-07
2.9753e-06
3.11879e-06
1.08806e-07
3.11958e-06
7.82477e-08
3.12068e-06
-2.79489e-08
3.1195e-06
-2.55495e-08
3.12408e-06
4.29279e-08
3.12309e-06
-2.88414e-08
3.12689e-06
4.60091e-09
3.12239e-06
-6.95115e-08
3.12804e-06
-3.60512e-09
3.12329e-06
-5.26764e-08
3.1295e-06
-2.27712e-09
3.12633e-06
-9.74233e-09
3.1302e-06
4.44276e-09
3.12935e-06
2.5998e-08
3.12931e-06
3.43907e-08
3.129e-06
6.13412e-08
3.1254e-06
8.79389e-08
3.12243e-06
1.17268e-07
3.12002e-06
1.50388e-07
1.80938e-07
3.11864e-06
3.26805e-06
1.04665e-07
3.26805e-06
7.82443e-08
3.27015e-06
-3.00425e-08
3.2682e-06
-2.36031e-08
3.27366e-06
3.74683e-08
3.27201e-06
-2.71863e-08
3.27648e-06
1.30004e-10
3.27166e-06
-6.46994e-08
3.27744e-06
-9.37993e-09
3.27312e-06
-4.83555e-08
3.27873e-06
-7.89107e-09
3.27664e-06
-7.65355e-09
3.27959e-06
1.50047e-09
3.27976e-06
2.58272e-08
3.2791e-06
3.5044e-08
3.279e-06
6.14399e-08
3.27577e-06
9.11758e-08
3.27249e-06
1.20545e-07
3.27012e-06
1.52762e-07
1.8226e-07
3.2688e-06
3.42445e-06
1.00149e-07
3.42356e-06
7.9135e-08
3.42676e-06
-3.32484e-08
3.42401e-06
-2.08507e-08
3.43033e-06
3.11479e-08
3.42812e-06
-2.49768e-08
3.43307e-06
-4.81986e-09
3.42825e-06
-5.98814e-08
3.4338e-06
-1.493e-08
3.43027e-06
-4.48196e-08
3.43507e-06
-1.26959e-08
3.43408e-06
-6.66579e-09
3.43628e-06
-6.98055e-10
3.4372e-06
2.49141e-08
3.43623e-06
3.60092e-08
3.43601e-06
6.16618e-08
3.4332e-06
9.39887e-08
3.42974e-06
1.24004e-07
3.42718e-06
1.55313e-07
1.83567e-07
3.42588e-06
3.58831e-06
9.52475e-08
3.58643e-06
8.10151e-08
3.59084e-06
-3.76565e-08
3.5873e-06
-1.73055e-08
3.59438e-06
2.40622e-08
3.59183e-06
-2.24253e-08
3.59696e-06
-9.9457e-09
3.59252e-06
-5.54436e-08
3.59749e-06
-1.98998e-08
3.595e-06
-4.23366e-08
3.59894e-06
-1.66308e-08
3.59889e-06
-6.61577e-09
3.60064e-06
-2.44876e-09
3.60194e-06
2.36121e-08
3.60076e-06
3.71867e-08
3.59992e-06
6.25078e-08
3.59735e-06
9.65601e-08
3.59389e-06
1.27464e-07
3.59129e-06
1.57915e-07
1.8492e-07
3.58993e-06
3.76e-06
8.99568e-08
3.75706e-06
8.39534e-08
3.7627e-06
-4.32957e-08
3.75846e-06
-1.30678e-08
3.7661e-06
1.6417e-08
3.76354e-06
-1.98643e-08
3.76844e-06
-1.48468e-08
3.76481e-06
-5.18071e-08
3.7689e-06
-2.39907e-08
3.76756e-06
-4.09966e-08
3.77077e-06
-1.98389e-08
3.77134e-06
-7.18444e-09
3.77289e-06
-4.00203e-09
3.77408e-06
2.24216e-08
3.77226e-06
3.90022e-08
3.77031e-06
6.44661e-08
3.76769e-06
9.91798e-08
3.76439e-06
1.30763e-07
3.76216e-06
1.6014e-07
1.86067e-07
3.76102e-06
3.93986e-06
8.42874e-08
3.93584e-06
8.7971e-08
3.94265e-06
-5.01008e-08
3.93793e-06
-8.35243e-09
3.9458e-06
8.54455e-09
3.94367e-06
-1.77285e-08
3.9479e-06
-1.90829e-08
3.94543e-06
-4.9337e-08
3.9485e-06
-2.706e-08
3.94815e-06
-4.06446e-08
3.95091e-06
-2.26036e-08
3.95173e-06
-8.00099e-09
3.95297e-06
-5.24152e-09
3.95327e-06
2.21188e-08
3.95004e-06
4.22363e-08
3.947e-06
6.75062e-08
3.94426e-06
1.01923e-07
3.94128e-06
1.33742e-07
3.93971e-06
1.61708e-07
1.8641e-07
3.93936e-06
4.12827e-06
7.82646e-08
4.12321e-06
9.30291e-08
4.131e-06
-5.78831e-08
4.12616e-06
-3.51062e-09
4.13379e-06
9.08574e-10
4.13259e-06
-1.65309e-08
4.13574e-06
-2.2233e-08
4.13466e-06
-4.82493e-08
4.13679e-06
-2.91892e-08
4.13705e-06
-4.09058e-08
4.13962e-06
-2.5173e-08
4.1402e-06
-8.58529e-09
4.14046e-06
-5.49867e-09
4.13912e-06
2.34559e-08
4.13461e-06
4.67495e-08
4.13074e-06
7.13708e-08
4.12806e-06
1.04606e-07
4.12557e-06
1.36233e-07
4.12467e-06
1.62609e-07
1.85613e-07
4.12546e-06
4.32563e-06
7.19319e-08
4.31965e-06
9.90136e-08
4.32807e-06
-6.6306e-08
4.32359e-06
9.76068e-10
4.33043e-06
-5.93669e-09
4.33068e-06
-1.6783e-08
4.33246e-06
-2.40086e-08
4.33271e-06
-4.8502e-08
4.33422e-06
-3.06955e-08
4.33455e-06
-4.12403e-08
4.3369e-06
-2.75228e-08
4.3367e-06
-8.38702e-09
4.33487e-06
-3.66416e-09
4.33229e-06
2.60329e-08
4.32716e-06
5.18795e-08
4.32285e-06
7.56887e-08
4.32037e-06
1.0708e-07
4.3185e-06
1.38109e-07
4.3183e-06
1.62808e-07
1.83942e-07
4.31997e-06
4.53235e-06
6.53528e-08
4.52564e-06
1.05724e-07
4.5342e-06
-7.48659e-08
4.53066e-06
4.52198e-09
4.53616e-06
-1.14389e-08
4.53825e-06
-1.88764e-08
4.53863e-06
-2.43859e-08
4.53984e-06
-4.97076e-08
4.54119e-06
-3.20523e-08
4.54094e-06
-4.09915e-08
4.54269e-06
-2.9266e-08
4.54127e-06
-6.97386e-09
4.53722e-06
3.91069e-10
4.53392e-06
2.93296e-08
4.52882e-06
5.69828e-08
4.52441e-06
8.00952e-08
4.52215e-06
1.09338e-07
4.52099e-06
1.39272e-07
4.52151e-06
1.62292e-07
1.81843e-07
4.52361e-06
4.74885e-06
5.86133e-08
4.74172e-06
1.12863e-07
4.74974e-06
-8.28877e-08
4.74778e-06
6.48021e-09
4.75149e-06
-1.51524e-08
4.75555e-06
-2.29386e-08
4.75487e-06
-2.37047e-08
4.75632e-06
-5.11579e-08
4.75793e-06
-3.36551e-08
4.75655e-06
-3.96132e-08
4.75701e-06
-2.97307e-08
4.75439e-06
-4.34659e-09
4.74884e-06
5.93455e-09
4.74502e-06
3.31533e-08
4.7404e-06
6.16015e-08
4.73616e-06
8.43361e-08
4.73405e-06
1.11449e-07
4.73371e-06
1.39609e-07
4.73472e-06
1.6128e-07
1.79459e-07
4.73711e-06
4.97559e-06
5.18185e-08
4.9684e-06
1.20056e-07
4.97509e-06
-8.95828e-08
4.97533e-06
6.24571e-09
4.97705e-06
-1.68734e-08
4.98283e-06
-2.87234e-08
4.98174e-06
-2.26123e-08
4.98259e-06
-5.20049e-08
4.98451e-06
-3.55734e-08
4.98176e-06
-3.68678e-08
4.98044e-06
-2.84091e-08
4.97693e-06
-8.39102e-10
4.97069e-06
1.21823e-08
4.96647e-06
3.73705e-08
4.96249e-06
6.55837e-08
4.95859e-06
8.82313e-08
4.95663e-06
1.13409e-07
4.95705e-06
1.39194e-07
4.95837e-06
1.5996e-07
1.76754e-07
4.96107e-06
5.21305e-06
4.50866e-08
5.20624e-06
1.26866e-07
5.21078e-06
-9.41233e-08
5.21365e-06
3.37504e-09
5.21353e-06
-1.67512e-08
5.22039e-06
-3.5587e-08
5.21964e-06
-2.18608e-08
5.21916e-06
-5.15292e-08
5.22102e-06
-3.7429e-08
5.21709e-06
-3.29339e-08
5.21381e-06
-2.51302e-08
5.20985e-06
3.12233e-09
5.20341e-06
1.86146e-08
5.19898e-06
4.1804e-08
5.19555e-06
6.90119e-08
5.19213e-06
9.1652e-08
5.19047e-06
1.15067e-07
5.1913e-06
1.38363e-07
5.19294e-06
1.5832e-07
1.73705e-07
5.19599e-06
5.46174e-06
3.85394e-08
5.45578e-06
1.32824e-07
5.4575e-06
-9.58441e-08
5.46304e-06
-2.16357e-09
5.46159e-06
-1.53022e-08
5.46869e-06
-4.26855e-08
5.46878e-06
-2.19568e-08
5.4667e-06
-4.94441e-08
5.46779e-06
-3.85245e-08
5.46301e-06
-2.81481e-08
5.45807e-06
-2.01887e-08
5.45389e-06
7.29807e-09
5.44764e-06
2.48628e-08
5.44313e-06
4.6319e-08
5.44008e-06
7.20584e-08
5.43721e-06
9.45257e-08
5.43605e-06
1.16227e-07
5.43695e-06
1.3746e-07
5.43896e-06
1.56311e-07
1.70314e-07
5.44235e-06
5.72221e-06
3.2291e-08
5.71757e-06
1.37466e-07
5.71619e-06
-9.44644e-08
5.72378e-06
-9.7552e-09
5.72181e-06
-1.33303e-08
5.72831e-06
-4.91923e-08
5.72935e-06
-2.29963e-08
5.72585e-06
-4.59426e-08
5.72552e-06
-3.81922e-08
5.72018e-06
-2.28065e-08
5.71402e-06
-1.40338e-08
5.70979e-06
1.1533e-08
5.70397e-06
3.06767e-08
5.69943e-06
5.08606e-08
5.69661e-06
7.48772e-08
5.69432e-06
9.68183e-08
5.69374e-06
1.16809e-07
5.69461e-06
1.36589e-07
5.69693e-06
1.53986e-07
1.66605e-07
5.70064e-06
5.99505e-06
2.64386e-08
5.99216e-06
1.40352e-07
5.98776e-06
-9.00671e-08
5.99627e-06
-1.82612e-08
5.99463e-06
-1.16951e-08
5.99993e-06
-5.44864e-08
6.00165e-06
-2.4715e-08
5.99706e-06
-4.13591e-08
5.99513e-06
-3.62613e-08
5.98935e-06
-1.70257e-08
5.98245e-06
-7.1307e-09
5.97816e-06
1.5822e-08
5.97295e-06
3.58836e-08
5.96844e-06
5.53743e-08
5.96571e-06
7.75999e-08
5.96403e-06
9.85021e-08
5.96394e-06
1.169e-07
5.9649e-06
1.35626e-07
5.96745e-06
1.51441e-07
1.62635e-07
5.97142e-06
6.28088e-06
2.10486e-08
6.28008e-06
1.41147e-07
6.27302e-06
-8.30008e-08
6.28113e-06
-2.63721e-08
6.2804e-06
-1.09645e-08
6.28425e-06
-5.83385e-08
6.28619e-06
-2.66516e-08
6.28066e-06
-3.58377e-08
6.27741e-06
-3.30105e-08
6.27136e-06
-1.09687e-08
6.26397e-06
2.60479e-10
6.25962e-06
2.01664e-08
6.25511e-06
4.0397e-08
6.25072e-06
5.97578e-08
6.248e-06
8.03206e-08
6.2469e-06
9.9603e-08
6.24717e-06
1.16631e-07
6.24841e-06
1.34387e-07
6.25113e-06
1.48725e-07
1.58484e-07
6.25528e-06
6.58036e-06
1.61535e-08
6.5818e-06
1.39709e-07
6.57267e-06
-7.38634e-08
6.57921e-06
-3.29141e-08
6.57948e-06
-1.12351e-08
6.58195e-06
-6.08092e-08
6.58367e-06
-2.83761e-08
6.57735e-06
-2.9519e-08
6.57307e-06
-2.87213e-08
6.56693e-06
-4.83709e-09
6.5593e-06
7.89443e-09
6.55481e-06
2.46549e-08
6.55098e-06
4.42273e-08
6.5469e-06
6.38416e-08
6.54415e-06
8.30629e-08
6.5435e-06
1.00259e-07
6.54406e-06
1.16068e-07
6.54569e-06
1.32756e-07
6.5486e-06
1.45818e-07
1.54212e-07
6.55287e-06
6.89419e-06
1.17566e-08
6.89775e-06
1.36148e-07
6.88735e-06
-6.34678e-08
6.89159e-06
-3.71468e-08
6.89226e-06
-1.19084e-08
6.89367e-06
-6.22181e-08
6.89487e-06
-2.95787e-08
6.88806e-06
-2.27086e-08
6.8828e-06
-2.34624e-08
6.87688e-06
1.08127e-09
6.86915e-06
1.56285e-08
6.86441e-06
2.93974e-08
6.86114e-06
4.74933e-08
6.85756e-06
6.74257e-08
6.85487e-06
8.57515e-08
6.85445e-06
1.0068e-07
6.85528e-06
1.15236e-07
6.85735e-06
1.30687e-07
6.8605e-06
1.42665e-07
1.49841e-07
6.86487e-06
7.22306e-06
7.8329e-09
7.2284e-06
1.30807e-07
7.21768e-06
-5.27503e-08
7.2193e-06
-3.8767e-08
7.21944e-06
-1.20417e-08
7.21983e-06
-6.26114e-08
7.22056e-06
-3.03112e-08
7.21343e-06
-1.5571e-08
7.20743e-06
-1.74688e-08
7.20186e-06
6.6525e-09
7.19426e-06
2.32296e-08
7.18912e-06
3.45357e-08
7.18622e-06
5.03895e-08
7.1833e-06
7.03467e-08
7.18084e-06
8.82107e-08
7.18046e-06
1.01067e-07
7.18152e-06
1.14175e-07
7.18402e-06
1.28186e-07
7.18748e-06
1.39204e-07
1.45356e-07
7.19197e-06
7.56773e-06
4.33259e-09
7.5744e-06
1.24129e-07
7.56417e-06
-4.25131e-08
7.56336e-06
-3.79592e-08
7.562e-06
-1.06859e-08
7.56124e-06
-6.1844e-08
7.56151e-06
-3.05884e-08
7.55423e-06
-8.29219e-09
7.54762e-06
-1.08494e-08
7.54258e-06
1.169e-08
7.53533e-06
3.04801e-08
7.52974e-06
4.01192e-08
7.52696e-06
5.31733e-08
7.52477e-06
7.25397e-08
7.52277e-06
9.02095e-08
7.5223e-06
1.0153e-07
7.52352e-06
1.12963e-07
7.5264e-06
1.25307e-07
7.53021e-06
1.35388e-07
1.40718e-07
7.53485e-06
7.92896e-06
1.18594e-09
7.93642e-06
1.1667e-07
7.92739e-06
-3.34829e-08
7.92447e-06
-3.5041e-08
7.92126e-06
-7.4761e-09
7.91878e-06
-5.93672e-08
7.91853e-06
-3.03386e-08
7.91133e-06
-1.08755e-09
7.90422e-06
-3.74298e-09
7.89971e-06
1.62055e-08
7.89307e-06
3.71182e-08
7.88709e-06
4.60936e-08
7.88415e-06
5.6116e-08
7.88263e-06
7.40613e-08
7.88129e-06
9.15473e-08
7.88079e-06
1.02031e-07
7.88207e-06
1.11684e-07
7.88523e-06
1.22145e-07
7.88941e-06
1.31204e-07
1.3588e-07
7.89425e-06
8.30754e-06
-1.67672e-09
8.31531e-06
1.08906e-07
8.30777e-06
-2.59432e-08
8.30342e-06
-3.06963e-08
8.29819e-06
-2.24586e-09
8.29363e-06
-5.48078e-08
8.29262e-06
-2.93264e-08
8.28553e-06
5.99867e-09
8.27806e-06
3.73425e-09
8.27397e-06
2.0296e-08
8.26818e-06
4.29052e-08
8.26199e-06
5.22841e-08
8.25868e-06
5.94246e-08
8.25765e-06
7.50889e-08
8.25707e-06
9.2127e-08
8.25671e-06
1.02396e-07
8.25801e-06
1.10388e-07
8.26132e-06
1.18829e-07
8.26584e-06
1.26688e-07
1.30801e-07
8.27092e-06
8.7043e-06
-4.31471e-09
8.71201e-06
1.01197e-07
8.70586e-06
-1.97923e-08
8.70102e-06
-2.58602e-08
8.69358e-06
5.19902e-09
8.68678e-06
-4.80092e-08
8.68497e-06
-2.75157e-08
8.678e-06
1.297e-08
8.66994e-06
1.1786e-08
8.66613e-06
2.41148e-08
8.66135e-06
4.76782e-08
8.65524e-06
5.84003e-08
8.65148e-06
6.31803e-08
8.65069e-06
7.58813e-08
8.65084e-06
9.19788e-08
8.65085e-06
1.02385e-07
8.65219e-06
1.09049e-07
8.65554e-06
1.15478e-07
8.6603e-06
1.21927e-07
1.25459e-07
8.66564e-06
9.12008e-06
-6.77056e-09
9.12735e-06
9.39215e-08
9.12259e-06
-1.50302e-08
9.11755e-06
-2.08252e-08
9.10839e-06
1.43659e-08
9.09935e-06
-3.89773e-08
9.09665e-06
-2.48088e-08
9.08969e-06
1.99318e-08
9.08096e-06
2.05088e-08
9.07707e-06
2.80059e-08
9.07332e-06
5.1429e-08
9.06765e-06
6.40717e-08
9.06349e-06
6.73432e-08
9.06266e-06
7.67049e-08
9.0634e-06
9.12397e-08
9.06399e-06
1.01799e-07
9.06547e-06
1.07564e-07
9.06879e-06
1.12164e-07
9.07368e-06
1.17038e-07
1.19875e-07
9.07926e-06
9.55574e-06
-9.05307e-09
9.56219e-06
8.74773e-08
9.5587e-06
-1.15395e-08
9.55386e-06
-1.59914e-08
9.54342e-06
2.48101e-08
9.53214e-06
-2.77016e-08
9.52845e-06
-2.11215e-08
9.52176e-06
2.66312e-08
9.5122e-06
3.00645e-08
9.50777e-06
3.24385e-08
9.50491e-06
5.42907e-08
9.50002e-06
6.89547e-08
9.49562e-06
7.17431e-08
9.49455e-06
7.77809e-08
9.49569e-06
9.01001e-08
9.49695e-06
1.00539e-07
9.49872e-06
1.05787e-07
9.50201e-06
1.0888e-07
9.50691e-06
1.12129e-07
1.14113e-07
9.51268e-06
1.00122e-05
-1.11155e-08
1.00177e-05
8.19754e-08
1.0015e-05
-8.79866e-09
1.00108e-05
-1.17944e-08
9.99942e-06
3.61506e-08
9.98589e-06
-1.41746e-08
9.98119e-06
-1.64171e-08
9.97503e-06
3.27901e-08
9.96477e-06
4.03249e-08
9.95929e-06
3.79158e-08
9.95705e-06
5.65346e-08
9.95316e-06
7.28448e-08
9.94881e-06
7.60906e-08
9.94735e-06
7.92393e-08
9.94867e-06
8.87847e-08
9.95059e-06
9.86183e-08
9.9528e-06
1.03576e-07
9.95613e-06
1.05554e-07
9.96099e-06
1.07266e-07
1.08259e-07
9.96684e-06
1.04904e-05
-1.28591e-08
1.04952e-05
7.72065e-08
1.04921e-05
-5.76047e-09
1.04891e-05
-8.80708e-09
1.04774e-05
4.78912e-08
1.04617e-05
1.5274e-09
1.04557e-05
-1.03945e-08
1.04502e-05
3.8219e-08
1.04397e-05
5.08329e-08
1.04329e-05
4.47728e-08
1.04308e-05
5.86279e-08
1.04279e-05
7.5691e-08
1.0424e-05
8.00511e-08
1.04221e-05
8.10737e-08
1.04234e-05
8.75225e-08
1.04259e-05
9.61414e-08
1.04286e-05
1.00834e-07
1.04321e-05
1.0207e-07
1.04369e-05
1.02458e-07
1.0239e-07
1.04428e-05
1.09913e-05
-1.41724e-08
1.09958e-05
7.27451e-08
1.09913e-05
-1.2267e-09
1.09894e-05
-6.97034e-09
1.09785e-05
5.88631e-08
1.09606e-05
1.93921e-08
1.09528e-05
-2.58319e-09
1.09481e-05
4.28484e-08
1.0938e-05
6.10053e-08
1.09297e-05
5.30107e-08
1.09272e-05
6.11603e-08
1.09253e-05
7.75988e-08
1.0922e-05
8.3345e-08
1.09199e-05
8.31267e-08
1.0921e-05
8.6501e-08
1.09238e-05
9.32893e-08
1.09271e-05
9.75355e-08
1.09309e-05
9.83032e-08
1.09357e-05
9.76553e-08
9.65557e-08
1.09415e-05
1.15161e-05
-1.49277e-08
1.15201e-05
6.88047e-08
1.15143e-05
4.56643e-09
1.15126e-05
-5.26012e-09
1.15031e-05
6.83408e-08
1.14839e-05
3.86136e-08
1.14737e-05
7.57926e-09
1.14697e-05
4.68853e-08
1.14603e-05
7.03361e-08
1.14511e-05
6.22844e-08
1.14476e-05
6.46299e-08
1.14463e-05
7.88719e-08
1.14439e-05
8.57888e-08
1.14418e-05
8.51433e-08
1.14425e-05
8.58195e-08
1.14455e-05
9.02827e-08
1.14493e-05
9.37327e-08
1.14535e-05
9.41539e-08
1.14584e-05
9.2771e-08
9.0767e-08
1.14642e-05
1.20659e-05
-1.50146e-08
1.20695e-05
6.52575e-08
1.2062e-05
1.20054e-08
1.20598e-05
-2.99584e-09
1.20523e-05
7.57936e-08
1.20326e-05
5.83186e-08
1.20198e-05
2.03324e-08
1.20158e-05
5.08942e-08
1.20077e-05
7.84747e-08
1.19979e-05
7.21274e-08
1.19932e-05
6.92668e-08
1.19921e-05
7.99604e-08
1.19906e-05
8.73453e-08
1.19889e-05
8.68319e-08
1.19892e-05
8.54523e-08
1.19922e-05
8.73308e-08
1.19964e-05
8.95528e-08
1.2001e-05
8.95759e-08
1.2006e-05
8.77029e-08
8.4992e-08
1.20118e-05
1.26419e-05
-1.43414e-08
1.26451e-05
6.20386e-08
1.2636e-05
2.10947e-08
1.26323e-05
7.18212e-10
1.26268e-05
8.12971e-08
1.26078e-05
7.73616e-08
1.25927e-05
3.54537e-08
1.25879e-05
5.56601e-08
1.25811e-05
8.52962e-08
1.25711e-05
8.20778e-08
1.25654e-05
7.50444e-08
1.2564e-05
8.12988e-08
1.25632e-05
8.81666e-08
1.25621e-05
8.79593e-08
1.25623e-05
8.52327e-08
1.2565e-05
8.45762e-08
1.25694e-05
8.51759e-08
1.25744e-05
8.45893e-08
1.25797e-05
8.23578e-08
7.91529e-08
1.25856e-05
1.32454e-05
-1.28487e-08
1.32485e-05
5.90195e-08
1.32377e-05
3.18613e-08
1.32318e-05
6.58983e-09
1.3228e-05
8.51006e-08
1.32105e-05
9.4897e-08
1.31934e-05
5.25027e-08
1.31873e-05
6.17655e-08
1.31816e-05
9.10427e-08
1.3172e-05
9.16523e-08
1.31652e-05
8.18536e-08
1.31633e-05
8.32077e-08
1.31629e-05
8.85191e-08
1.31624e-05
8.84548e-08
1.31628e-05
8.48905e-08
1.31653e-05
8.20445e-08
1.31697e-05
8.07806e-08
1.3175e-05
7.93004e-08
1.31807e-05
7.66794e-08
7.31383e-08
1.31867e-05
1.38778e-05
-1.05299e-08
1.38804e-05
5.6492e-08
1.38686e-05
4.36481e-08
1.386e-05
1.51633e-08
1.38572e-05
8.78962e-08
1.38418e-05
1.10312e-07
1.38236e-05
7.07377e-08
1.38156e-05
6.97383e-08
1.38104e-05
9.61877e-08
1.38016e-05
1.00486e-07
1.3794e-05
8.94598e-08
1.37913e-05
8.59419e-08
1.37911e-05
8.86969e-08
1.37912e-05
8.83833e-08
1.37918e-05
8.42318e-08
1.37943e-05
7.95955e-08
1.37986e-05
7.64524e-08
1.3804e-05
7.38825e-08
1.381e-05
7.06918e-08
6.681e-08
1.38163e-05
1.45406e-05
-7.44167e-09
1.45423e-05
5.47956e-08
1.45302e-05
5.57299e-08
1.45189e-05
2.64951e-08
1.4516e-05
9.07106e-08
1.4503e-05
1.23337e-07
1.44842e-05
8.95083e-08
1.44742e-05
7.97493e-08
1.44691e-05
1.0132e-07
1.44611e-05
1.08476e-07
1.44531e-05
9.75015e-08
1.44493e-05
8.96723e-08
1.4449e-05
8.90239e-08
1.44495e-05
8.78687e-08
1.44505e-05
8.3214e-08
1.44531e-05
7.70689e-08
1.44574e-05
7.21266e-08
1.44629e-05
6.84244e-08
1.4469e-05
6.45783e-08
5.99945e-08
1.44758e-05
1.52351e-05
-3.68204e-09
1.52359e-05
5.40093e-08
1.52236e-05
6.80616e-08
1.521e-05
4.00418e-08
1.52063e-05
9.44036e-08
1.51953e-05
1.3436e-07
1.51768e-05
1.08052e-07
1.51648e-05
9.17351e-08
1.51591e-05
1.07033e-07
1.51518e-05
1.15731e-07
1.51436e-05
1.05672e-07
1.51389e-05
9.43952e-08
1.51381e-05
8.98577e-08
1.51389e-05
8.70776e-08
1.51402e-05
8.18695e-08
1.51429e-05
7.44145e-08
1.51472e-05
6.77815e-08
1.51529e-05
6.27514e-08
1.51591e-05
5.84137e-08
5.27605e-08
1.51663e-05
1.5963e-05
6.3219e-10
1.59624e-05
5.46035e-08
1.59506e-05
7.99037e-08
1.59351e-05
5.55486e-08
1.59298e-05
9.9682e-08
1.59204e-05
1.43788e-07
1.59025e-05
1.25948e-07
1.58888e-05
1.05418e-07
1.58819e-05
1.13885e-07
1.58751e-05
1.22522e-07
1.5867e-05
1.13794e-07
1.58614e-05
9.99909e-08
1.58598e-05
9.15009e-08
1.58606e-05
8.62661e-08
1.58622e-05
8.02641e-08
1.5865e-05
7.16324e-08
1.58693e-05
6.34677e-08
1.58751e-05
5.69204e-08
1.58821e-05
5.14225e-08
4.60438e-08
1.58888e-05
1.67259e-05
5.33288e-09
1.67238e-05
5.67383e-08
1.67126e-05
9.10834e-08
1.66956e-05
7.25015e-08
1.66884e-05
1.06915e-07
1.66798e-05
1.52366e-07
1.66628e-05
1.42931e-07
1.66478e-05
1.20471e-07
1.66394e-05
1.22281e-07
1.66326e-05
1.2929e-07
1.66246e-05
1.21819e-07
1.66183e-05
1.06329e-07
1.66156e-05
9.41334e-08
1.66161e-05
8.5818e-08
1.66178e-05
7.8508e-08
1.66207e-05
6.87866e-08
1.6625e-05
5.91202e-08
1.66311e-05
5.08638e-08
1.66385e-05
4.40523e-08
3.88402e-08
1.66457e-05
1.75254e-05
1.02482e-08
1.75222e-05
6.00319e-08
1.75112e-05
1.02077e-07
1.74933e-05
9.03268e-08
1.74839e-05
1.16332e-07
1.74755e-05
1.60757e-07
1.74595e-05
1.58987e-07
1.74433e-05
1.36598e-07
1.74332e-05
1.32428e-07
1.74259e-05
1.36592e-07
1.74179e-05
1.2985e-07
1.74108e-05
1.13343e-07
1.74071e-05
9.78426e-08
1.74068e-05
8.61523e-08
1.74085e-05
7.68554e-08
1.74113e-05
6.59108e-08
1.74158e-05
5.46049e-08
1.74221e-05
4.46124e-08
1.74296e-05
3.65253e-08
3.04554e-08
1.7438e-05
1.83633e-05
1.52458e-08
1.83587e-05
6.47034e-08
1.83481e-05
1.12627e-07
1.83299e-05
1.08572e-07
1.83181e-05
1.28109e-07
1.83095e-05
1.6941e-07
1.82942e-05
1.74211e-07
1.82772e-05
1.53661e-07
1.82651e-05
1.44467e-07
1.82567e-05
1.44994e-07
1.82484e-05
1.38188e-07
1.82407e-05
1.2107e-07
1.82358e-05
1.02727e-07
1.82343e-05
8.75939e-08
1.82354e-05
7.57422e-08
1.82383e-05
6.30242e-08
1.82431e-05
4.98887e-08
1.82496e-05
3.80891e-08
1.82576e-05
2.84853e-08
2.12496e-08
1.82668e-05
1.92414e-05
2.02255e-08
1.92355e-05
7.05686e-08
1.92254e-05
1.22817e-07
1.9207e-05
1.26899e-07
1.91932e-05
1.41926e-07
1.91835e-05
1.7911e-07
1.91689e-05
1.88827e-07
1.91511e-05
1.71419e-07
1.91371e-05
1.58535e-07
1.9127e-05