/*--------------------------------*- C++ -*----------------------------------*\
| =========                 |                                                 |
| \\      /  F ield         | OpenFOAM: The Open Source CFD Toolbox           |
|  \\    /   O peration     | Version:  v2012                                 |
|   \\  /    A nd           | Website:  www.openfoam.com                      |
|    \\/     M anipulation  |                                                 |
\*---------------------------------------------------------------------------*/
FoamFile
{
    version     2.0;
    format      ascii;
    class       volVectorField;
    location    "1.05";
    object      U;
}
// * * * * * * * * * * * * * * * * * * * * * * * * * * * * * * * * * * * * * //

dimensions      [0 1 -1 0 0 0 0];


internalField   nonuniform List<vector> 
17600
(
(0.823092 0.00112762 0)
(1.18014 0.00184099 0)
(0.832353 -0.00128814 0)
(1.15285 -0.000551536 0)
(0.840825 0.000644051 0)
(1.13946 0.000179635 0)
(0.848831 5.99908e-05 0)
(1.12693 -0.00173558 0)
(0.851366 0.000309192 0)
(1.12201 -0.00190509 0)
(0.853596 0.00104765 0)
(1.12015 -0.000976468 0)
(0.857425 0.00126121 0)
(1.11635 -0.000201022 0)
(0.860924 0.00222763 0)
(1.11285 0.000340585 0)
(0.859267 0.00294263 0)
(1.11049 0.00077529 0)
(0.850085 0.00393824 0)
(1.10684 0.00125311 0)
(0.833062 0.00101732 0)
(1.16725 0.00196229 0)
(0.84655 -0.00126848 0)
(1.13905 -0.000417752 0)
(0.856243 0.000557466 0)
(1.12326 0.000347031 0)
(0.867851 -3.85705e-05 0)
(1.108 -0.00153178 0)
(0.873658 0.000115939 0)
(1.09887 -0.00169066 0)
(0.880842 0.000820892 0)
(1.09064 -0.000777431 0)
(0.893051 0.00108196 0)
(1.07745 8.31123e-07 0)
(0.909331 0.00220491 0)
(1.05891 0.000472097 0)
(0.92813 0.00325338 0)
(1.03251 0.000539626 0)
(0.95066 0.00534944 0)
(0.991434 0.000308225 0)
(0.85295 0.000923625 0)
(1.14247 0.00205557 0)
(0.872527 -0.0012227 0)
(1.11325 -0.000322562 0)
(0.884043 0.000513126 0)
(1.09463 0.000421933 0)
(0.900068 -6.80427e-05 0)
(1.07666 -0.00140902 0)
(0.909977 3.95653e-05 0)
(1.06306 -0.00160071 0)
(0.922086 0.000746385 0)
(1.04967 -0.000800592 0)
(0.939404 0.00115124 0)
(1.03263 -0.000199897 0)
(0.957915 0.00240836 0)
(1.01449 0.000222659 0)
(0.973559 0.00359971 0)
(0.996848 0.00037565 0)
(0.982561 0.00574877 0)
(0.980886 0.00131598 0)
(0.880001 0.000894805 0)
(1.11003 0.00205086 0)
(0.905043 -0.00113064 0)
(1.0811 -0.000294473 0)
(0.91671 0.000554295 0)
(1.06163 0.000383779 0)
(0.93474 2.45124e-06 0)
(1.04399 -0.00141841 0)
(0.945652 0.000112231 0)
(1.03005 -0.00167311 0)
(0.957425 0.000846393 0)
(1.01818 -0.000988101 0)
(0.971542 0.00135071 0)
(1.00664 -0.000462144 0)
(0.982545 0.00264128 0)
(0.998344 1.47267e-05 0)
(0.988372 0.00382804 0)
(0.99241 0.000378386 0)
(0.987808 0.00587763 0)
(0.9866 0.00239429 0)
(0.90976 0.000922908 0)
(1.07602 0.00196361 0)
(0.9373 -0.000995854 0)
(1.05009 -0.00030833 0)
(0.946374 0.00064812 0)
(1.03306 0.000279658 0)
(0.962747 0.000113803 0)
(1.01957 -0.00148221 0)
(0.971047 0.000228063 0)
(1.00929 -0.0017755 0)
(0.978614 0.00095771 0)
(1.00252 -0.00114562 0)
(0.986812 0.00148573 0)
(0.997687 -0.00060525 0)
(0.991314 0.00274725 0)
(0.995612 -5.09379e-05 0)
(0.992662 0.00392395 0)
(0.993455 0.000475037 0)
(0.990363 0.00596181 0)
(0.988925 0.00335755 0)
(0.937593 0.00099269 0)
(1.04642 0.00182657 0)
(0.963789 -0.000849438 0)
(1.02618 -0.000331187 0)
(0.968424 0.000749601 0)
(1.01406 0.000163137 0)
(0.980926 0.000206538 0)
(1.00633 -0.00153806 0)
(0.985481 0.000320126 0)
(1.00039 -0.00183785 0)
(0.988797 0.00101539 0)
(0.997584 -0.00122974 0)
(0.992873 0.00153247 0)
(0.996154 -0.000661325 0)
(0.994469 0.00275967 0)
(0.995941 -5.53921e-05 0)
(0.994678 0.00394462 0)
(0.994468 0.00063148 0)
(0.992289 0.00601137 0)
(0.990451 0.0042235 0)
(0.960156 0.00108313 0)
(1.0249 0.00167498 0)
(0.982183 -0.000722493 0)
(1.01145 -0.000339682 0)
(0.982445 0.000828353 0)
(1.00456 6.34878e-05 0)
(0.991085 0.000257744 0)
(1.00154 -0.00156936 0)
(0.992897 0.000378664 0)
(0.998439 -0.00186245 0)
(0.993622 0.00103788 0)
(0.9973 -0.00127341 0)
(0.995656 0.0015418 0)
(0.996797 -0.000682742 0)
(0.996175 0.00273549 0)
(0.996814 -2.89038e-05 0)
(0.996008 0.00391012 0)
(0.99549 0.000869147 0)
(0.993612 0.00598959 0)
(0.991922 0.00504008 0)
(0.976174 0.00117103 0)
(1.01189 0.00153646 0)
(0.993146 -0.000629919 0)
(1.00435 -0.000329208 0)
(0.99054 0.000875892 0)
(1.0014 -1.50667e-05 0)
(0.996507 0.000275144 0)
(1.00102 -0.00158448 0)
(0.996984 0.000416815 0)
(0.999252 -0.00186615 0)
(0.996514 0.00104984 0)
(0.99849 -0.00129568 0)
(0.997557 0.0015448 0)
(0.997986 -0.000685448 0)
(0.997542 0.00270098 0)
(0.99786 3.46993e-05 0)
(0.997115 0.00383189 0)
(0.99654 0.0011833 0)
(0.99475 0.00590399 0)
(0.99326 0.00580596 0)
(0.986247 0.00124037 0)
(1.00538 0.00142268 0)
(0.998847 -0.000569725 0)
(1.00182 -0.000308902 0)
(0.995135 0.000898863 0)
(1.00121 -7.92575e-05 0)
(0.999578 0.000275318 0)
(1.00186 -0.00159364 0)
(0.999594 0.0004455 0)
(1.00067 -0.00185884 0)
(0.998677 0.00106009 0)
(0.999934 -0.00129974 0)
(0.999175 0.00154602 0)
(0.999256 -0.000666688 0)
(0.998808 0.00265613 0)
(0.99894 0.000139403 0)
(0.998181 0.00371989 0)
(0.997565 0.00155483 0)
(0.99587 0.00578311 0)
(0.994499 0.00650236 0)
(0.991977 0.00128626 0)
(1.00271 0.0013322 0)
(1.0015 -0.000531162 0)
(1.00126 -0.000290002 0)
(0.997852 0.000907262 0)
(1.00187 -0.000135449 0)
(1.00144 0.000270701 0)
(1.00271 -0.00160159 0)
(1.00133 0.000468569 0)
(1.00187 -0.00184554 0)
(1.00033 0.00106771 0)
(1.00121 -0.00128774 0)
(1.00055 0.00154074 0)
(1.00042 -0.000622129 0)
(0.999968 0.00259081 0)
(0.999966 0.000285629 0)
(0.999207 0.00358105 0)
(0.998544 0.00196349 0)
(0.996961 0.00565765 0)
(0.99567 0.00710951 0)
(0.995045 0.00131155 0)
(1.0018 0.00125906 0)
(1.00263 -0.000503129 0)
(1.00123 -0.000278745 0)
(0.999515 0.000908011 0)
(1.00249 -0.000186618 0)
(1.00253 0.000267431 0)
(1.00319 -0.00160922 0)
(1.00238 0.00048579 0)
(1.00266 -0.00182936 0)
(1.0015 0.0010685 0)
(1.00218 -0.0012629 0)
(1.00164 0.00152305 0)
(1.00141 -0.000551834 0)
(1.00098 0.00249607 0)
(1.00089 0.000473111 0)
(1.00016 0.00342096 0)
(0.999461 0.00238849 0)
(0.997998 0.0055585 0)
(0.996777 0.00761233 0)
(0.996683 0.00132178 0)
(1.00153 0.00119758 0)
(1.0031 -0.000478436 0)
(1.00123 -0.000276255 0)
(1.00053 0.000904417 0)
(1.00287 -0.00023366 0)
(1.00311 0.000266876 0)
(1.00334 -0.00161553 0)
(1.00292 0.000495733 0)
(1.00308 -0.00181166 0)
(1.00223 0.00105798 0)
(1.00285 -0.00122723 0)
(1.00245 0.00148625 0)
(1.00219 -0.000458034 0)
(1.00181 0.00236934 0)
(1.00169 0.000694183 0)
(1.001 0.00324939 0)
(1.0003 0.00280596 0)
(0.998962 0.00551224 0)
(0.997814 0.00800391 0)
(0.997601 0.00132164 0)
(1.00145 0.00114401 0)
(1.00329 -0.000453984 0)
(1.00119 -0.000281055 0)
(1.00113 0.000897781 0)
(1.00306 -0.0002769 0)
(1.00337 0.000269618 0)
(1.00332 -0.00161928 0)
(1.00313 0.000497551 0)
(1.00325 -0.00179184 0)
(1.00266 0.00103168 0)
(1.00327 -0.00117975 0)
(1.00301 0.00142266 0)
(1.00277 -0.000341891 0)
(1.00247 0.00221436 0)
(1.00234 0.000936477 0)
(1.00173 0.00308495 0)
(1.00104 0.0031916 0)
(0.999833 0.00553418 0)
(0.998767 0.00828934 0)
(0.998144 0.00131418 0)
(1.00142 0.00109612 0)
(1.00336 -0.000429111 0)
(1.00113 -0.000290814 0)
(1.00148 0.000888334 0)
(1.00316 -0.000316721 0)
(1.00346 0.000274605 0)
(1.00324 -0.00161968 0)
(1.00319 0.000490963 0)
(1.0033 -0.0017678 0)
(1.00288 0.000986519 0)
(1.00353 -0.00111874 0)
(1.00339 0.00132925 0)
(1.00319 -0.000204586 0)
(1.00297 0.00203823 0)
(1.00285 0.00118438 0)
(1.00233 0.00294899 0)
(1.00166 0.00352595 0)
(1.00059 0.00562377 0)
(0.999614 0.00848572 0)
(0.99847 0.00130127 0)
(1.00141 0.00105256 0)
(1.00337 -0.000404298 0)
(1.00109 -0.000303462 0)
(1.00167 0.000876066 0)
(1.00321 -0.000353255 0)
(1.00349 0.000278861 0)
(1.00316 -0.00161516 0)
(1.00318 0.000474659 0)
(1.0033 -0.00173615 0)
(1.00301 0.000920794 0)
(1.00367 -0.00104194 0)
(1.00363 0.00120792 0)
(1.00347 -4.79946e-05 0)
(1.00333 0.00185089 0)
(1.00323 0.00142146 0)
(1.00279 0.00285781 0)
(1.00217 0.00380213 0)
(1.00122 0.00576927 0)
(1.00034 0.00861788 0)
(0.998664 0.00128404 0)
(1.0014 0.00101254 0)
(1.00337 -0.000380426 0)
(1.00107 -0.00031748 0)
(1.00178 0.000860949 0)
(1.00324 -0.000385989 0)
(1.00349 0.000280518 0)
(1.00311 -0.00160348 0)
(1.00316 0.000446147 0)
(1.00329 -0.00169329 0)
(1.00307 0.00083317 0)
(1.00376 -0.000947468 0)
(1.00379 0.00106217 0)
(1.00365 0.000120466 0)
(1.00358 0.00166538 0)
(1.00349 0.00163244 0)
(1.00313 0.00281852 0)
(1.00256 0.00402617 0)
(1.00173 0.00595382 0)
(1.00094 0.00871299 0)
(0.998778 0.00126333 0)
(1.00138 0.000975555 0)
(1.00335 -0.000358242 0)
(1.00106 -0.000331419 0)
(1.00183 0.000842103 0)
(1.00325 -0.000414882 0)
(1.00348 0.000277428 0)
(1.00308 -0.00158223 0)
(1.00315 0.000403929 0)
(1.00328 -0.00163674 0)
(1.00312 0.000723772 0)
(1.0038 -0.000837306 0)
(1.00389 0.000898628 0)
(1.00376 0.000287926 0)
(1.00375 0.00149802 0)
(1.00367 0.00180548 0)
(1.00339 0.00283032 0)
(1.00288 0.00420807 0)
(1.00215 0.00615691 0)
(1.00145 0.00879552 0)
(0.998848 0.00123947 0)
(1.00136 0.000941874 0)
(1.00333 -0.000338966 0)
(1.00106 -0.000343759 0)
(1.00186 0.000818457 0)
(1.00325 -0.000439286 0)
(1.00347 0.000267079 0)
(1.00307 -0.00154984 0)
(1.00314 0.000347401 0)
(1.00328 -0.00156508 0)
(1.00315 0.000595031 0)
(1.00383 -0.000717567 0)
(1.00397 0.000728256 0)
(1.00383 0.000441315 0)
(1.00388 0.00136281 0)
(1.0038 0.00193721 0)
(1.00359 0.00288693 0)
(1.00315 0.00435729 0)
(1.0025 0.00635804 0)
(1.00188 0.00888174 0)
(0.998898 0.00121266 0)
(1.00134 0.00091185 0)
(1.0033 -0.00032381 0)
(1.00107 -0.000353072 0)
(1.00186 0.00078859 0)
(1.00324 -0.000456727 0)
(1.00344 0.000246876 0)
(1.00306 -0.00150578 0)
(1.00314 0.000274872 0)
(1.00329 -0.00147888 0)
(1.00319 0.000451895 0)
(1.00385 -0.00059513 0)
(1.00404 0.000562166 0)
(1.00388 0.000568436 0)
(1.00398 0.00126369 0)
(1.00391 0.00203228 0)
(1.00376 0.00297861 0)
(1.00339 0.00448464 0)
(1.00283 0.00654158 0)
(1.00227 0.00897718 0)
(0.998938 0.001183 0)
(1.00132 0.000886134 0)
(1.00328 -0.000314526 0)
(1.00108 -0.000357038 0)
(1.00186 0.000750226 0)
(1.00322 -0.000465001 0)
(1.00342 0.00021346 0)
(1.00306 -0.00144844 0)
(1.00314 0.000186888 0)
(1.00329 -0.00138229 0)
(1.00323 0.000300188 0)
(1.00386 -0.000475176 0)
(1.0041 0.000410402 0)
(1.00393 0.000663626 0)
(1.00407 0.00119676 0)
(1.00402 0.00209649 0)
(1.00392 0.00309314 0)
(1.00362 0.0046017 0)
(1.00314 0.00669793 0)
(1.00263 0.00907817 0)
(0.998975 0.00115009 0)
(1.00129 0.000866223 0)
(1.00325 -0.000312987 0)
(1.00108 -0.00035423 0)
(1.00185 0.000702108 0)
(1.00321 -0.000463192 0)
(1.0034 0.000166386 0)
(1.00305 -0.0013783 0)
(1.00314 8.71835e-05 0)
(1.0033 -0.00127707 0)
(1.00326 0.000145058 0)
(1.00387 -0.000366161 0)
(1.00416 0.000281381 0)
(1.00398 0.00072869 0)
(1.00415 0.00115897 0)
(1.00414 0.00213602 0)
(1.00409 0.00321885 0)
(1.00386 0.00471895 0)
(1.00346 0.00682506 0)
(1.00298 0.00917672 0)
(0.99901 0.00111409 0)
(1.00126 0.000852436 0)
(1.00323 -0.00032005 0)
(1.00109 -0.000343395 0)
(1.00184 0.00064181 0)
(1.00319 -0.000450204 0)
(1.00337 0.00010724 0)
(1.00305 -0.00129905 0)
(1.00315 -2.00511e-05 0)
(1.00331 -0.00116888 0)
(1.0033 4.18953e-07 0)
(1.00388 -0.000278437 0)
(1.00422 0.000176465 0)
(1.00403 0.000763519 0)
(1.00424 0.00114685 0)
(1.00426 0.00215642 0)
(1.00426 0.00334593 0)
(1.0041 0.00484323 0)
(1.00378 0.00692785 0)
(1.00333 0.00926465 0)
(0.999046 0.00107457 0)
(1.00123 0.000846963 0)
(1.0032 -0.000339414 0)
(1.0011 -0.000321402 0)
(1.00183 0.000567773 0)
(1.00317 -0.000426998 0)
(1.00335 3.63816e-05 0)
(1.00304 -0.00121194 0)
(1.00315 -0.00013524 0)
(1.00331 -0.00107032 0)
(1.00334 -0.0001292 0)
(1.0039 -0.000216404 0)
(1.00427 9.19381e-05 0)
(1.00408 0.000770566 0)
(1.00433 0.00115432 0)
(1.0044 0.00216379 0)
(1.00444 0.0034646 0)
(1.00435 0.00497576 0)
(1.00411 0.00701297 0)
(1.00368 0.00933442 0)
(0.999082 0.00103121 0)
(1.0012 0.000851899 0)
(1.00317 -0.000372841 0)
(1.00111 -0.000288735 0)
(1.00182 0.000482778 0)
(1.00314 -0.000395158 0)
(1.00332 -4.52463e-05 0)
(1.00304 -0.00111961 0)
(1.00316 -0.000251215 0)
(1.00332 -0.000990079 0)
(1.00338 -0.000246779 0)
(1.00392 -0.000179577 0)
(1.00433 2.31391e-05 0)
(1.00415 0.000761317 0)
(1.00441 0.00117628 0)
(1.00455 0.00216877 0)
(1.00463 0.00356759 0)
(1.0046 0.0051133 0)
(1.00445 0.00708624 0)
(1.00405 0.00938081 0)
(0.999117 0.000983711 0)
(1.00117 0.000868871 0)
(1.00314 -0.000418248 0)
(1.00111 -0.000246851 0)
(1.00181 0.00038666 0)
(1.00312 -0.000355044 0)
(1.0033 -0.000134732 0)
(1.00303 -0.00103172 0)
(1.00316 -0.00035374 0)
(1.00332 -0.000932857 0)
(1.00342 -0.000344898 0)
(1.00394 -0.00016732 0)
(1.00439 -3.85906e-05 0)
(1.00422 0.000743411 0)
(1.00451 0.0012109 0)
(1.00471 0.00218328 0)
(1.00485 0.00365624 0)
(1.00487 0.00525062 0)
(1.0048 0.00715448 0)
(1.00442 0.00940256 0)
(0.999154 0.00093274 0)
(1.00113 0.000895176 0)
(1.00311 -0.000479866 0)
(1.00112 -0.000196367 0)
(1.00179 0.000280486 0)
(1.0031 -0.000312314 0)
(1.00327 -0.000222698 0)
(1.00302 -0.000959815 0)
(1.00317 -0.000439265 0)
(1.00333 -0.000900551 0)
(1.00346 -0.000423524 0)
(1.00396 -0.000176173 0)
(1.00444 -8.89184e-05 0)
(1.0043 0.00072036 0)
(1.00461 0.00126033 0)
(1.00488 0.00221801 0)
(1.00508 0.00373977 0)
(1.00515 0.00538476 0)
(1.00515 0.00722462 0)
(1.00481 0.00940255 0)
(0.99919 0.00087787 0)
(1.0011 0.000933018 0)
(1.00308 -0.00055985 0)
(1.00113 -0.000137424 0)
(1.00178 0.000169207 0)
(1.00308 -0.00027268 0)
(1.00324 -0.000300258 0)
(1.00301 -0.000909899 0)
(1.00317 -0.000505605 0)
(1.00333 -0.000887413 0)
(1.0035 -0.000493178 0)
(1.00398 -0.000192315 0)
(1.0045 -0.000126948 0)
(1.00439 0.000701991 0)
(1.00471 0.00133332 0)
(1.00506 0.00228625 0)
(1.00533 0.00382868 0)
(1.00544 0.00551771 0)
(1.0055 0.00730058 0)
(1.0052 0.00938814 0)
(0.999228 0.00081842 0)
(1.00106 0.000986126 0)
(1.00305 -0.000651515 0)
(1.00113 -7.35012e-05 0)
(1.00176 5.99648e-05 0)
(1.00305 -0.0002433 0)
(1.00321 -0.000358269 0)
(1.003 -0.000885677 0)
(1.00316 -0.000550323 0)
(1.00333 -0.000887171 0)
(1.00353 -0.00055796 0)
(1.00401 -0.000205937 0)
(1.00456 -0.000152936 0)
(1.00448 0.000696731 0)
(1.00483 0.00143466 0)
(1.00525 0.00239421 0)
(1.00559 0.00392418 0)
(1.00574 0.00564638 0)
(1.00586 0.00737977 0)
(1.00561 0.00936735 0)
(0.999265 0.00075579 0)
(1.00101 0.00105084 0)
(1.00301 -0.000750276 0)
(1.00113 -8.35219e-06 0)
(1.00174 -4.82795e-05 0)
(1.00303 -0.000239507 0)
(1.00318 -0.00038896 0)
(1.00299 -0.000886411 0)
(1.00316 -0.000576834 0)
(1.00333 -0.000889851 0)
(1.00357 -0.000612893 0)
(1.00403 -0.000211919 0)
(1.00462 -0.000136955 0)
(1.00459 0.000719182 0)
(1.00495 0.00156678 0)
(1.00544 0.00253703 0)
(1.00586 0.00402233 0)
(1.00605 0.00575766 0)
(1.00622 0.00745519 0)
(1.00601 0.00934269 0)
(0.999303 0.000690097 0)
(1.00096 0.00112462 0)
(1.00297 -0.000854216 0)
(1.00114 5.11873e-05 0)
(1.00171 -0.00014208 0)
(1.003 -0.000266205 0)
(1.00315 -0.000395941 0)
(1.00297 -0.000905917 0)
(1.00315 -0.000604457 0)
(1.00333 -0.000879168 0)
(1.0036 -0.000663477 0)
(1.00406 -0.00019557 0)
(1.00468 -6.03625e-05 0)
(1.00471 0.000783276 0)
(1.00509 0.00172851 0)
(1.00564 0.00270327 0)
(1.00614 0.00412203 0)
(1.00637 0.00583715 0)
(1.00658 0.0075155 0)
(1.00641 0.0093081 0)
(0.999341 0.000621804 0)
(1.00091 0.00120476 0)
(1.00293 -0.000957433 0)
(1.00114 8.79713e-05 0)
(1.00168 -0.000198483 0)
(1.00298 -0.000323945 0)
(1.00311 -0.000383271 0)
(1.00296 -0.000932776 0)
(1.00315 -0.000639674 0)
(1.00332 -0.0008518 0)
(1.00364 -0.000697341 0)
(1.0041 -0.000148588 0)
(1.00475 6.50484e-05 0)
(1.00484 0.000882568 0)
(1.00524 0.00189943 0)
(1.00583 0.00287862 0)
(1.00642 0.00421863 0)
(1.0067 0.00587956 0)
(1.00694 0.00754153 0)
(1.0068 0.0092489 0)
(0.999379 0.000552756 0)
(1.00085 0.00128761 0)
(1.00288 -0.00104997 0)
(1.00114 9.4422e-05 0)
(1.00165 -0.000224136 0)
(1.00296 -0.000408478 0)
(1.00307 -0.000362429 0)
(1.00293 -0.00094531 0)
(1.00314 -0.000679014 0)
(1.00331 -0.000806553 0)
(1.00368 -0.000691602 0)
(1.00415 -7.37419e-05 0)
(1.00482 0.000222203 0)
(1.00498 0.00100507 0)
(1.0054 0.00205793 0)
(1.00603 0.00305519 0)
(1.00669 0.00431369 0)
(1.00703 0.0058967 0)
(1.00731 0.00752458 0)
(1.00719 0.00915625 0)
(0.999418 0.000483715 0)
(1.00079 0.00136827 0)
(1.00282 -0.00111748 0)
(1.00114 6.65418e-05 0)
(1.0016 -0.000227412 0)
(1.00293 -0.000508302 0)
(1.00303 -0.000350579 0)
(1.0029 -0.000932228 0)
(1.00314 -0.000722375 0)
(1.00331 -0.0007404 0)
(1.00372 -0.000641048 0)
(1.00421 1.46276e-05 0)
(1.00489 0.000396192 0)
(1.00511 0.00114096 0)
(1.00557 0.00219139 0)
(1.00623 0.00321828 0)
(1.00696 0.00440948 0)
(1.00736 0.00590216 0)
(1.00767 0.00746953 0)
(1.00757 0.00902827 0)
(0.999456 0.000415057 0)
(1.00072 0.0014406 0)
(1.00276 -0.00114765 0)
(1.00114 4.67581e-06 0)
(1.00155 -0.000210135 0)
(1.00291 -0.000614493 0)
(1.003 -0.000352846 0)
(1.00287 -0.000900322 0)
(1.00314 -0.000754977 0)
(1.0033 -0.000655619 0)
(1.00376 -0.000544985 0)
(1.00427 0.000112865 0)
(1.00497 0.000575839 0)
(1.00525 0.00128255 0)
(1.00575 0.00229845 0)
(1.00643 0.00334851 0)
(1.00722 0.00450087 0)
(1.00769 0.00590425 0)
(1.00803 0.0073885 0)
(1.00795 0.00886845 0)
(0.999494 0.000350189 0)
(1.00064 0.00149683 0)
(1.00269 -0.00114124 0)
(1.00115 -8.06843e-05 0)
(1.0015 -0.00018327 0)
(1.00288 -0.000711449 0)
(1.00296 -0.000369189 0)
(1.00283 -0.000849002 0)
(1.00314 -0.000763658 0)
(1.00331 -0.000558044 0)
(1.0038 -0.000413901 0)
(1.00434 0.000222786 0)
(1.00505 0.000754695 0)
(1.00538 0.00142745 0)
(1.00592 0.0023894 0)
(1.00664 0.00343952 0)
(1.00748 0.00457677 0)
(1.008 0.00590424 0)
(1.00839 0.00729494 0)
(1.00832 0.00868581 0)
(0.999533 0.000289962 0)
(1.00056 0.00153494 0)
(1.00261 -0.00109718 0)
(1.00115 -0.000185785 0)
(1.00144 -0.000161679 0)
(1.00284 -0.000791844 0)
(1.00293 -0.000396464 0)
(1.00279 -0.000778071 0)
(1.00314 -0.000740746 0)
(1.00332 -0.000441155 0)
(1.00384 -0.000255017 0)
(1.00442 0.000337016 0)
(1.00514 0.000924728 0)
(1.00551 0.00157471 0)
(1.0061 0.00247179 0)
(1.00685 0.00349611 0)
(1.00774 0.00462198 0)
(1.00831 0.00589151 0)
(1.00873 0.00719189 0)
(1.00867 0.00848544 0)
(0.999571 0.000231665 0)
(1.00049 0.00155435 0)
(1.00252 -0.00101551 0)
(1.00115 -0.000298171 0)
(1.00138 -0.000158741 0)
(1.0028 -0.000857497 0)
(1.00291 -0.000429256 0)
(1.00275 -0.000696545 0)
(1.00314 -0.00069007 0)
(1.00333 -0.000306984 0)
(1.00387 -8.58776e-05 0)
(1.00449 0.00044587 0)
(1.00523 0.0010728 0)
(1.00563 0.00172187 0)
(1.00627 0.00255379 0)
(1.00706 0.00353262 0)
(1.008 0.00463534 0)
(1.00861 0.00585998 0)
(1.00906 0.00708165 0)
(1.00901 0.00827556 0)
(0.999609 0.00018034 0)
(1.00041 0.0015473 0)
(1.00242 -0.000909743 0)
(1.00115 -0.000395939 0)
(1.00133 -0.000169984 0)
(1.00276 -0.000908321 0)
(1.0029 -0.000462173 0)
(1.00271 -0.000602776 0)
(1.00314 -0.000618356 0)
(1.00336 -0.00017155 0)
(1.00391 8.23072e-05 0)
(1.00457 0.000549997 0)
(1.00533 0.00119324 0)
(1.00575 0.00186341 0)
(1.00643 0.00264107 0)
(1.00727 0.00355901 0)
(1.00826 0.00462107 0)
(1.00891 0.00580502 0)
(1.00937 0.00696258 0)
(1.00933 0.00806287 0)
(0.999647 0.000134401 0)
(1.00034 0.00151547 0)
(1.00231 -0.000793455 0)
(1.00114 -0.000460957 0)
(1.00127 -0.000180674 0)
(1.00272 -0.000945192 0)
(1.00289 -0.000487556 0)
(1.00268 -0.000488196 0)
(1.00315 -0.000526548 0)
(1.00339 -3.56496e-05 0)
(1.00395 0.000263056 0)
(1.00464 0.000661352 0)
(1.00543 0.00128848 0)
(1.00587 0.00199304 0)
(1.00659 0.00273562 0)
(1.00748 0.00358369 0)
(1.00852 0.00458637 0)
(1.00921 0.00572542 0)
(1.00968 0.00683151 0)
(1.00964 0.00785058 0)
(0.999684 9.34851e-05 0)
(1.00027 0.00146078 0)
(1.00219 -0.000670713 0)
(1.00113 -0.000493658 0)
(1.00121 -0.000185472 0)
(1.00268 -0.000967363 0)
(1.00289 -0.0005048 0)
(1.00266 -0.000359739 0)
(1.00316 -0.000417559 0)
(1.00343 9.65152e-05 0)
(1.00398 0.000454192 0)
(1.00471 0.000783596 0)
(1.00554 0.00136192 0)
(1.00601 0.00210246 0)
(1.00674 0.00283477 0)
(1.00767 0.00361591 0)
(1.00878 0.00454115 0)
(1.0095 0.00562364 0)
(1.00998 0.00668502 0)
(1.00992 0.0076373 0)
(0.999721 6.00529e-05 0)
(1.0002 0.00138534 0)
(1.00208 -0.000547128 0)
(1.00112 -0.000496638 0)
(1.00115 -0.000175181 0)
(1.00264 -0.000968152 0)
(1.00291 -0.000517073 0)
(1.00264 -0.00022743 0)
(1.00317 -0.000293263 0)
(1.00348 0.000215511 0)
(1.00402 0.000644252 0)
(1.00477 0.000923643 0)
(1.00565 0.00142601 0)
(1.00615 0.00218415 0)
(1.00689 0.00292905 0)
(1.00786 0.00365717 0)
(1.00902 0.00449219 0)
(1.00979 0.00550092 0)
(1.01027 0.00651738 0)
(1.0102 0.00741613 0)
(0.999756 2.70852e-05 0)
(1.00015 0.00130635 0)
(1.00197 -0.00043538 0)
(1.00111 -0.000467931 0)
(1.00109 -0.000138224 0)
(1.00259 -0.00094349 0)
(1.00294 -0.000519777 0)
(1.00264 -9.09976e-05 0)
(1.00319 -0.00015531 0)
(1.00354 0.000316021 0)
(1.00407 0.000822923 0)
(1.00482 0.00108464 0)
(1.00576 0.00149681 0)
(1.0063 0.00223649 0)
(1.00705 0.00300605 0)
(1.00804 0.00370209 0)
(1.00926 0.00444644 0)
(1.01008 0.00536337 0)
(1.01057 0.0063273 0)
(1.01046 0.00718187 0)
(0.99979 -3.96894e-06 0)
(1.0001 0.00122616 0)
(1.00186 -0.000341696 0)
(1.00109 -0.000418338 0)
(1.00103 -7.24991e-05 0)
(1.00254 -0.000891732 0)
(1.00298 -0.000508555 0)
(1.00265 4.0538e-05 0)
(1.0032 -4.65897e-06 0)
(1.00361 0.000398407 0)
(1.00412 0.000978839 0)
(1.00486 0.00125974 0)
(1.00586 0.00158281 0)
(1.00646 0.00226481 0)
(1.00722 0.00305347 0)
(1.00821 0.00373899 0)
(1.00947 0.0044053 0)
(1.01036 0.00521766 0)
(1.01087 0.0061144 0)
(1.01073 0.00692778 0)
(0.999823 -2.98848e-05 0)
(1.00005 0.00113778 0)
(1.00175 -0.000266595 0)
(1.00108 -0.000357113 0)
(1.00098 1.98588e-05 0)
(1.00249 -0.000811341 0)
(1.00303 -0.000483643 0)
(1.00268 0.00017397 0)
(1.00322 0.000149064 0)
(1.00369 0.000460598 0)
(1.0042 0.00109709 0)
(1.00491 0.00143253 0)
(1.00595 0.00168452 0)
(1.00662 0.0022813 0)
(1.0074 0.0030687 0)
(1.00838 0.00375867 0)
(1.00967 0.00436718 0)
(1.01062 0.00507253 0)
(1.01115 0.00588486 0)
(1.01099 0.00665246 0)
(0.999855 -5.30728e-05 0)
(1.00001 0.00105159 0)
(1.00165 -0.000208556 0)
(1.00107 -0.000293101 0)
(1.00092 0.000140135 0)
(1.00244 -0.000695743 0)
(1.00309 -0.00044557 0)
(1.00272 0.000311428 0)
(1.00323 0.000307613 0)
(1.00376 0.000521865 0)
(1.00429 0.00117702 0)
(1.00496 0.00159008 0)
(1.00603 0.00180102 0)
(1.00679 0.00229824 0)
(1.0076 0.00305462 0)
(1.00856 0.00375164 0)
(1.00986 0.00432349 0)
(1.01085 0.00493126 0)
(1.01143 0.00564671 0)
(1.01125 0.00635824 0)
(0.999886 -7.85458e-05 0)
(0.999979 0.000981348 0)
(1.00156 -0.000166246 0)
(1.00107 -0.000229423 0)
(1.00087 0.000285447 0)
(1.00238 -0.000539552 0)
(1.00315 -0.00039497 0)
(1.00277 0.000444075 0)
(1.00323 0.000489878 0)
(1.00384 0.000605569 0)
(1.0044 0.00122905 0)
(1.00503 0.00172388 0)
(1.00611 0.00192958 0)
(1.00694 0.0023267 0)
(1.0078 0.00302047 0)
(1.00875 0.00371426 0)
(1.01004 0.00426596 0)
(1.01107 0.00479375 0)
(1.01169 0.00540819 0)
(1.01151 0.00605071 0)
(0.999914 -0.000101251 0)
(0.999949 0.000922245 0)
(1.00147 -0.000134751 0)
(1.00108 -0.000171032 0)
(1.00083 0.000445631 0)
(1.00232 -0.000340608 0)
(1.00322 -0.000328895 0)
(1.00284 0.000567382 0)
(1.00324 0.000696769 0)
(1.0039 0.000712144 0)
(1.00452 0.00126184 0)
(1.00511 0.00182265 0)
(1.00617 0.00205796 0)
(1.00707 0.00237019 0)
(1.00799 0.00297792 0)
(1.00894 0.00365073 0)
(1.01021 0.00419175 0)
(1.01126 0.00466073 0)
(1.01192 0.00517927 0)
(1.01175 0.00574207 0)
(0.999941 -0.000119945 0)
(0.999921 0.000869127 0)
(1.00139 -0.000101155 0)
(1.00111 -0.000127393 0)
(1.00081 0.000612139 0)
(1.00224 -0.000105509 0)
(1.00329 -0.00024191 0)
(1.00294 0.000670341 0)
(1.00325 0.000920084 0)
(1.00395 0.000851206 0)
(1.00465 0.00129518 0)
(1.00521 0.00188614 0)
(1.00624 0.00217178 0)
(1.00719 0.0024235 0)
(1.00819 0.00293314 0)
(1.00914 0.00356392 0)
(1.01039 0.00409526 0)
(1.01144 0.00452495 0)
(1.01213 0.00496043 0)
(1.01198 0.00543889 0)
(0.999966 -0.000135106 0)
(0.999897 0.000822881 0)
(1.00131 -5.68633e-05 0)
(1.00114 -0.000103268 0)
(1.00079 0.00077741 0)
(1.00216 0.000160865 0)
(1.00335 -0.000122912 0)
(1.00305 0.000755508 0)
(1.00327 0.00114341 0)
(1.00399 0.00102795 0)
(1.00477 0.00134418 0)
(1.00533 0.00192423 0)
(1.00631 0.00226419 0)
(1.0073 0.00248175 0)
(1.00836 0.00289232 0)
(1.00934 0.00346013 0)
(1.01056 0.00397462 0)
(1.0116 0.00437837 0)
(1.01231 0.0047475 0)
(1.01218 0.00514346 0)
(0.999988 -0.000146127 0)
(0.999876 0.000780842 0)
(1.00123 9.67935e-06 0)
(1.00119 -8.46413e-05 0)
(1.0008 0.000924138 0)
(1.00207 0.000456532 0)
(1.00339 2.66982e-05 0)
(1.00318 0.000821971 0)
(1.0033 0.00134716 0)
(1.004 0.00123897 0)
(1.00488 0.00142025 0)
(1.00546 0.00194997 0)
(1.00639 0.00233202 0)
(1.00739 0.00253723 0)
(1.00852 0.00285656 0)
(1.00954 0.00334379 0)
(1.01074 0.00382868 0)
(1.01175 0.00421311 0)
(1.01247 0.00453345 0)
(1.01235 0.00485574 0)
(1.00001 -0.000151432 0)
(0.99986 0.000741617 0)
(1.00114 9.53614e-05 0)
(1.00124 -5.86154e-05 0)
(1.00084 0.00103605 0)
(1.00198 0.000769377 0)
(1.00342 0.000214969 0)
(1.00332 0.000878429 0)
(1.00335 0.00151987 0)
(1.00401 0.00147158 0)
(1.00496 0.00153159 0)
(1.00559 0.00197851 0)
(1.00649 0.00237951 0)
(1.00746 0.00258638 0)
(1.00865 0.00282702 0)
(1.00972 0.00322043 0)
(1.01092 0.0036574 0)
(1.0119 0.0040216 0)
(1.01261 0.00430775 0)
(1.01249 0.00457076 0)
(1.00002 -0.000148621 0)
(0.999848 0.000705669 0)
(1.00106 0.000194314 0)
(1.0013 -2.44291e-05 0)
(1.0009 0.00111664 0)
(1.00189 0.00107609 0)
(1.00341 0.0004526 0)
(1.00346 0.000943807 0)
(1.00343 0.00165655 0)
(1.004 0.00170342 0)
(1.00502 0.00167528 0)
(1.00571 0.00201836 0)
(1.00659 0.00241276 0)
(1.00753 0.00262797 0)
(1.00875 0.00280615 0)
(1.00987 0.0030994 0)
(1.01108 0.00346673 0)
(1.01204 0.00380075 0)
(1.01273 0.00406099 0)
(1.01261 0.00428002 0)
(1.00004 -0.000138278 0)
(0.999842 0.00067165 0)
(1.00098 0.000316186 0)
(1.00135 2.93813e-05 0)
(1.00098 0.00117116 0)
(1.00181 0.00135939 0)
(1.00338 0.000728911 0)
(1.00358 0.00103537 0)
(1.00353 0.00176617 0)
(1.004 0.00192015 0)
(1.00506 0.00184552 0)
(1.00582 0.0020727 0)
(1.00669 0.00243451 0)
(1.0076 0.00265658 0)
(1.00882 0.00279082 0)
(1.00999 0.0029874 0)
(1.01123 0.00326655 0)
(1.01218 0.00355246 0)
(1.01284 0.00378624 0)
(1.0127 0.00397263 0)
(1.00005 -0.000117885 0)
(0.999843 0.00063758 0)
(1.00089 0.000454867 0)
(1.0014 0.000119337 0)
(1.00109 0.00120478 0)
(1.00175 0.00161385 0)
(1.00332 0.00103696 0)
(1.00369 0.00116546 0)
(1.00364 0.00186385 0)
(1.00401 0.00211655 0)
(1.00506 0.00203297 0)
(1.0059 0.00214531 0)
(1.00678 0.00244812 0)
(1.00765 0.00266797 0)
(1.00887 0.0027748 0)
(1.01006 0.00288753 0)
(1.01134 0.0030699 0)
(1.01229 0.00328683 0)
(1.01294 0.00348357 0)
(1.01278 0.00364062 0)
(1.00006 -9.02742e-05 0)
(0.999851 0.000610366 0)
(1.00081 0.000599393 0)
(1.00143 0.000249166 0)
(1.00121 0.00123371 0)
(1.00172 0.00182827 0)
(1.00324 0.00136157 0)
(1.00377 0.00133431 0)
(1.00376 0.00195875 0)
(1.00403 0.00229188 0)
(1.00505 0.00222753 0)
(1.00595 0.00223923 0)
(1.00686 0.00246002 0)
(1.0077 0.0026606 0)
(1.00889 0.00275028 0)
(1.0101 0.00279642 0)
(1.0114 0.00288511 0)
(1.01237 0.00301714 0)
(1.01301 0.00315888 0)
(1.01284 0.00328008 0)
(1.00006 -5.6363e-05 0)
(0.999865 0.000597628 0)
(1.00074 0.000743658 0)
(1.00144 0.000412706 0)
(1.00134 0.0012709 0)
(1.00171 0.00200351 0)
(1.00315 0.00168282 0)
(1.00381 0.00154717 0)
(1.00388 0.00206255 0)
(1.00406 0.00245217 0)
(1.00501 0.00242288 0)
(1.00596 0.00235927 0)
(1.00692 0.00247871 0)
(1.00774 0.00264008 0)
(1.00889 0.00270845 0)
(1.01009 0.00270637 0)
(1.01141 0.00270821 0)
(1.01241 0.00275226 0)
(1.01305 0.00282069 0)
(1.01287 0.00289433 0)
(1.00006 -1.5087e-05 0)
(0.999885 0.000595051 0)
(1.00068 0.000886889 0)
(1.00144 0.000605137 0)
(1.00146 0.00133127 0)
(1.00173 0.00215146 0)
(1.00306 0.00199283 0)
(1.00382 0.0017988 0)
(1.00398 0.00219121 0)
(1.0041 0.00260192 0)
(1.00497 0.00261863 0)
(1.00593 0.0025042 0)
(1.00693 0.00251915 0)
(1.00776 0.002616 0)
(1.00887 0.00265211 0)
(1.01004 0.00260779 0)
(1.01136 0.00253473 0)
(1.01238 0.00249143 0)
(1.01304 0.00248043 0)
(1.01286 0.00249297 0)
(1.00006 3.10049e-05 0)
(0.999909 0.000603493 0)
(1.00062 0.00102738 0)
(1.00143 0.000819617 0)
(1.00158 0.0014222 0)
(1.00177 0.00228419 0)
(1.00297 0.0022889 0)
(1.0038 0.00207537 0)
(1.00406 0.00235018 0)
(1.00413 0.00274649 0)
(1.00491 0.00281301 0)
(1.00586 0.00266876 0)
(1.0069 0.00258969 0)
(1.00774 0.00259986 0)
(1.00881 0.00258784 0)
(1.00995 0.00249629 0)
(1.01126 0.00235833 0)
(1.01229 0.00223073 0)
(1.01297 0.00214033 0)
(1.0128 0.00208415 0)
(1.00006 7.95867e-05 0)
(0.999937 0.000628849 0)
(1.00058 0.00115855 0)
(1.0014 0.00105206 0)
(1.00168 0.00154017 0)
(1.00182 0.00240743 0)
(1.00289 0.00256575 0)
(1.00375 0.002371 0)
(1.00411 0.00254064 0)
(1.00417 0.00289826 0)
(1.00485 0.00300417 0)
(1.00575 0.00285106 0)
(1.00682 0.00268876 0)
(1.00767 0.0026031 0)
(1.00872 0.00252063 0)
(1.00981 0.00237442 0)
(1.01109 0.00217172 0)
(1.01212 0.00196618 0)
(1.01282 0.00179389 0)
(1.01267 0.00166711 0)
(1.00006 0.000129154 0)
(0.999966 0.000672033 0)
(1.00055 0.00127784 0)
(1.00136 0.00129096 0)
(1.00176 0.00169409 0)
(1.00189 0.00252814 0)
(1.00282 0.00282525 0)
(1.00367 0.00268331 0)
(1.00413 0.00277119 0)
(1.00419 0.00307064 0)
(1.00478 0.00319853 0)
(1.00561 0.00304837 0)
(1.00667 0.00281893 0)
(1.00754 0.00263333 0)
(1.00857 0.00246348 0)
(1.00961 0.00224827 0)
(1.01086 0.00197642 0)
(1.01188 0.00169215 0)
(1.0126 0.00143546 0)
(1.01247 0.00123089 0)
(1.00005 0.000179562 0)
(0.999994 0.000728045 0)
(1.00053 0.00139563 0)
(1.00132 0.00152499 0)
(1.00183 0.00188139 0)
(1.00196 0.00266278 0)
(1.00277 0.00307022 0)
(1.00358 0.00300883 0)
(1.00411 0.00304372 0)
(1.00419 0.00327705 0)
(1.00469 0.00340736 0)
(1.00543 0.00326372 0)
(1.00647 0.0029843 0)
(1.00733 0.00269889 0)
(1.00835 0.00242992 0)
(1.00934 0.00212656 0)
(1.01055 0.00177545 0)
(1.01156 0.001403 0)
(1.01229 0.00105692 0)
(1.01219 0.000761963 0)
(1.00005 0.00022794 0)
(1.00002 0.000796204 0)
(1.00051 0.00151483 0)
(1.00127 0.00176019 0)
(1.00187 0.00209459 0)
(1.00204 0.00281573 0)
(1.00273 0.00330714 0)
(1.00348 0.00334132 0)
(1.00405 0.00335546 0)