/*--------------------------------*- C++ -*----------------------------------*\
| =========                 |                                                 |
| \\      /  F ield         | OpenFOAM: The Open Source CFD Toolbox           |
|  \\    /   O peration     | Version:  v2012                                 |
|   \\  /    A nd           | Website:  www.openfoam.com                      |
|    \\/     M anipulation  |                                                 |
\*---------------------------------------------------------------------------*/
FoamFile
{
    version     2.0;
    format      ascii;
    class       volScalarField;
    location    "4.95";
    object      p;
}
// * * * * * * * * * * * * * * * * * * * * * * * * * * * * * * * * * * * * * //

dimensions      [0 2 -2 0 0 0 0];


internalField   nonuniform List<scalar> 
17600
(
-3.30761e-11
-0.00234033
-0.00309337
-0.00374283
-0.00450453
-0.00442607
-0.00542474
-0.00528131
-0.00567965
-0.00606555
-0.00652578
-0.00663854
-0.0069231
-0.00677494
-0.00674532
-0.0062433
-0.00566874
-0.00427572
-0.00242383
0.00111536
3.84807e-07
-0.00234324
-0.00309167
-0.00374527
-0.00449886
-0.00442698
-0.0054235
-0.00528361
-0.00567436
-0.00606854
-0.00652268
-0.00664383
-0.00691971
-0.00678936
-0.00674022
-0.00626425
-0.00565976
-0.00432654
-0.00241132
0.000835031
-6.79125e-07
-0.00234717
-0.00308855
-0.00374885
-0.00449226
-0.00442815
-0.00542198
-0.00528687
-0.00566866
-0.00607353
-0.00651827
-0.0066515
-0.00691496
-0.00680604
-0.00673347
-0.00628923
-0.00564964
-0.00438629
-0.00241282
0.000439454
-4.05805e-06
-0.00235164
-0.0030853
-0.00375213
-0.00448434
-0.00442866
-0.00542089
-0.00529049
-0.00566313
-0.00607914
-0.00651357
-0.00666008
-0.00691072
-0.00682324
-0.00672783
-0.0063145
-0.00564298
-0.00444488
-0.0024442
4.88351e-05
-9.7142e-06
-0.00235701
-0.00308187
-0.00375456
-0.00447504
-0.0044287
-0.0054203
-0.00529468
-0.00565746
-0.00608531
-0.00650857
-0.00666982
-0.00690649
-0.0068416
-0.00672227
-0.00634134
-0.00563869
-0.00450528
-0.00250672
-0.000320633
-1.73852e-05
-0.00236346
-0.00307791
-0.00375584
-0.00446462
-0.00442857
-0.00542005
-0.00529949
-0.00565142
-0.00609207
-0.00650327
-0.00668052
-0.00690191
-0.0068611
-0.00671651
-0.0063701
-0.00563718
-0.0045692
-0.00259871
-0.000666763
-2.66795e-05
-0.00237095
-0.00307325
-0.00375581
-0.00445349
-0.00442841
-0.00541989
-0.00530483
-0.00564492
-0.00609932
-0.00649774
-0.00669191
-0.00689724
-0.00688147
-0.00671131
-0.00640026
-0.00564059
-0.00463659
-0.00271828
-0.000993801
-3.71484e-05
-0.00237936
-0.00306786
-0.00375449
-0.00444185
-0.00442822
-0.00541961
-0.00531063
-0.00563791
-0.00610698
-0.00649207
-0.0067039
-0.00689285
-0.00690252
-0.00670757
-0.00643084
-0.00565151
-0.00470637
-0.00286386
-0.00130804
-4.84175e-05
-0.00238856
-0.00306179
-0.00375202
-0.00442982
-0.00442802
-0.00541909
-0.00531687
-0.00563041
-0.006115
-0.00648638
-0.00671647
-0.00688902
-0.00692404
-0.00670612
-0.00646092
-0.00567219
-0.00477788
-0.00303356
-0.00161576
-6.02554e-05
-0.00239843
-0.0030551
-0.00374862
-0.00441745
-0.00442781
-0.00541832
-0.0053235
-0.00562243
-0.00612336
-0.00648079
-0.00672949
-0.00688599
-0.00694562
-0.00670788
-0.0064898
-0.00570418
-0.00485132
-0.00322463
-0.00192246
-7.2556e-05
-0.00240887
-0.00304791
-0.0037445
-0.00440476
-0.00442759
-0.00541732
-0.00533049
-0.00561403
-0.00613197
-0.00647543
-0.00674274
-0.00688412
-0.0069667
-0.00671385
-0.00651711
-0.00574844
-0.00492804
-0.00343338
-0.00223231
-8.52823e-05
-0.00241977
-0.0030403
-0.00373978
-0.00439176
-0.00442735
-0.00541612
-0.00533777
-0.00560527
-0.00614072
-0.00647049
-0.00675593
-0.00688388
-0.00698671
-0.00672497
-0.00654278
-0.00580516
-0.00501055
-0.00365558
-0.00254788
-9.84201e-05
-0.00243107
-0.00303235
-0.00373453
-0.00437849
-0.00442705
-0.00541475
-0.00534524
-0.00559627
-0.00614944
-0.00646622
-0.00676869
-0.00688583
-0.00700512
-0.00674195
-0.00656738
-0.00587373
-0.00510199
-0.00388726
-0.00287015
-0.000111958
-0.00244269
-0.00302414
-0.00372873
-0.004365
-0.00442664
-0.00541327
-0.00535279
-0.00558714
-0.00615789
-0.00646293
-0.00678062
-0.0068905
-0.00702149
-0.00676517
-0.00659229
-0.00595272
-0.00520537
-0.00412549
-0.00319892
-0.000125886
-0.00245457
-0.00301574
-0.00372236
-0.00435136
-0.00442605
-0.00541176
-0.00536028
-0.00557808
-0.00616582
-0.00646095
-0.00679134
-0.00689837
-0.00703591
-0.00679454
-0.0066196
-0.00604045
-0.00532285
-0.00436866
-0.00353318
-0.0001402
-0.00246663
-0.00300722
-0.00371534
-0.00433766
-0.00442514
-0.00541033
-0.00536754
-0.0055693
-0.00617293
-0.00646061
-0.00680055
-0.00690976
-0.00704877
-0.00682942
-0.00665165
-0.00613572
-0.00545579
-0.00461602
-0.00387145
-0.000154903
-0.0024788
-0.00299866
-0.00370758
-0.00432404
-0.0044238
-0.00540909
-0.00537436
-0.00556105
-0.00617894
-0.00646217
-0.00680812
-0.00692479
-0.00706109
-0.00686876
-0.00669041
-0.00623816
-0.00560459
-0.00486729
-0.00421201
-0.000170009
-0.002491
-0.00299015
-0.00369896
-0.00431066
-0.00442187
-0.00540818
-0.00538052
-0.00555358
-0.0061836
-0.00646576
-0.00681409
-0.00694314
-0.00707446
-0.00691165
-0.00673725
-0.00634799
-0.00576877
-0.00512254
-0.00455285
-0.000185542
-0.00250311
-0.00298179
-0.00368934
-0.00429767
-0.00441915
-0.00540783
-0.0053858
-0.00554708
-0.00618679
-0.00647139
-0.00681887
-0.00696396
-0.0070904
-0.00695794
-0.00679323
-0.00646574
-0.00594759
-0.00538219
-0.00489175
-0.000201537
-0.002515
-0.0029737
-0.00367853
-0.00428529
-0.00441544
-0.00540825
-0.00539003
-0.00554161
-0.00618854
-0.00647891
-0.00682328
-0.00698607
-0.00710971
-0.00700801
-0.00685917
-0.00659216
-0.00614061
-0.00564723
-0.0052268
-0.000218048
-0.00252651
-0.00296604
-0.00366631
-0.00427378
-0.0044105
-0.00540953
-0.0053931
-0.00553718
-0.00618917
-0.00648788
-0.00682829
-0.00700862
-0.00713257
-0.00706254
-0.00693569
-0.00672805
-0.00634763
-0.0059192
-0.00555715
-0.000235138
-0.00253742
-0.00295898
-0.00365244
-0.00426331
-0.00440415
-0.00541177
-0.00539501
-0.00553359
-0.00618928
-0.00649751
-0.00683475
-0.00703148
-0.00715911
-0.00712255
-0.00702346
-0.00687416
-0.00656824
-0.00619972
-0.00588341
-0.00025289
-0.00254749
-0.00295272
-0.00363669
-0.00425431
-0.00439624
-0.00541497
-0.0053959
-0.00553032
-0.00618963
-0.00650709
-0.00684308
-0.00705479
-0.00718914
-0.00718906
-0.0071235
-0.00703149
-0.0068018
-0.00649011
-0.00620761
-0.000271431
-0.00255639
-0.00294751
-0.0036188
-0.00424693
-0.00438671
-0.00541898
-0.00539613
-0.00552664
-0.00619108
-0.00651513
-0.0068546
-0.00707917
-0.00722201
-0.00726239
-0.007237
-0.00720159
-0.00704831
-0.00679215
-0.00653314
-0.000290899
-0.00256372
-0.00294359
-0.0035986
-0.00424131
-0.00437563
-0.0054234
-0.00539646
-0.0055214
-0.00619442
-0.00652135
-0.00686651
-0.00710555
-0.00725691
-0.00734182
-0.00736427
-0.00738551
-0.00730889
-0.0071106
-0.00686546
-0.00031148
-0.00256903
-0.00294115
-0.00357597
-0.00423752
-0.00436323
-0.00542751
-0.00539812
-0.00551333
-0.00619985
-0.0065263
-0.00687815
-0.00713528
-0.00729384
-0.0074254
-0.00750226
-0.00757764
-0.00758435
-0.00745753
-0.00721365
-0.000333449
-0.0025718
-0.00294041
-0.0035508
-0.00423548
-0.00435
-0.00543043
-0.00540235
-0.00550168
-0.00620711
-0.0065307
-0.00688865
-0.00716952
-0.00733419
-0.00751164
-0.00764926
-0.00777672
-0.00786169
-0.00781108
-0.00761162
-0.000357057
-0.00257153
-0.00294151
-0.0035231
-0.00423481
-0.00433693
-0.00543097
-0.00541003
-0.00548611
-0.00621556
-0.00653561
-0.00689669
-0.00720827
-0.0073794
-0.00760107
-0.00781322
-0.00799511
-0.00814443
-0.00817264
-0.00802029
-0.000382616
-0.00256772
-0.00294438
-0.00349314
-0.00423489
-0.00432521
-0.00542795
-0.00542151
-0.00546688
-0.00622389
-0.00654326
-0.00690225
-0.00725296
-0.00743932
-0.00769967
-0.00799
-0.00823018
-0.00843494
-0.00853674
-0.0084301
-0.000410474
-0.00255982
-0.00294888
-0.00346132
-0.00423491
-0.00431589
-0.00542069
-0.00543696
-0.00544519
-0.00623103
-0.00655738
-0.00690937
-0.0073075
-0.00751343
-0.00780268
-0.00817225
-0.00848024
-0.00873432
-0.00889762
-0.00883576
-0.000440904
-0.00254745
-0.00295445
-0.00342835
-0.00423396
-0.00430984
-0.00540897
-0.00545632
-0.00542274
-0.0062374
-0.00658204
-0.00692149
-0.00736689
-0.00760084
-0.00790831
-0.00835409
-0.00874205
-0.00904419
-0.00925547
-0.00923171
-0.000474223
-0.00253042
-0.00296018
-0.00339519
-0.00423145
-0.00430762
-0.00539318
-0.0054794
-0.00540225
-0.00624419
-0.00662059
-0.00693335
-0.00742651
-0.00770207
-0.00801982
-0.00853213
-0.00901008
-0.00936484
-0.00961181
-0.00961568
-0.00051059
-0.00250875
-0.00296503
-0.00336256
-0.00422698
-0.00430963
-0.00537404
-0.00550672
-0.00538788
-0.00625075
-0.00667268
-0.00694682
-0.00748184
-0.00781521
-0.00814144
-0.00870554
-0.00927798
-0.00969401
-0.00996836
-0.00998836
-0.000549988
-0.00248292
-0.00296786
-0.00333044
-0.0042202
-0.00431629
-0.00535317
-0.00553984
-0.00538328
-0.00625369
-0.00672814
-0.00696515
-0.00752929
-0.00793622
-0.00827692
-0.00887616
-0.00954052
-0.0100281
-0.0103271
-0.010352
-0.000592362
-0.00245362
-0.00296757
-0.00329837
-0.00421108
-0.00432784
-0.0053333
-0.00558073
-0.00538809
-0.00624906
-0.00678351
-0.0069914
-0.00756854
-0.0080602
-0.00842858
-0.00904825
-0.0097949
-0.0103629
-0.0106888
-0.0107091
-0.000637436
-0.00242171
-0.00296326
-0.00326573
-0.0042003
-0.00434502
-0.00531656
-0.00562926
-0.00540211
-0.00623577
-0.00683896
-0.0070287
-0.00760178
-0.00818212
-0.00859584
-0.00922699
-0.0100411
-0.0106936
-0.0110521
-0.0110616
-0.000684788
-0.00238829
-0.0029544
-0.0032318
-0.00418862
-0.00437027
-0.00530309
-0.00568124
-0.00542598
-0.00621525
-0.00689247
-0.00707936
-0.00763283
-0.00829776
-0.00877565
-0.00941686
-0.0102809
-0.0110157
-0.0114142
-0.0114105
-0.000733931
-0.00235419
-0.00294142
-0.00319653
-0.00417598
-0.00440478
-0.00529225
-0.00573296
-0.00546071
-0.00618935
-0.00694486
-0.00714411
-0.00766638
-0.00840438
-0.00896339
-0.00962018
-0.0105168
-0.0113257
-0.0117711
-0.0117558
-0.000784197
-0.00232009
-0.0029259
-0.0031604
-0.0041614
-0.00444814
-0.00528513
-0.00578203
-0.00550655
-0.00616206
-0.00698876
-0.00722214
-0.00770783
-0.00850116
-0.00915315
-0.00983647
-0.0107512
-0.0116217
-0.0121185
-0.0120966
-0.000834844
-0.00228649
-0.00290943
-0.00312417
-0.00414324
-0.0044992
-0.00528371
-0.00582692
-0.00556278
-0.00613641
-0.0070193
-0.0073104
-0.00776193
-0.00858954
-0.00933859
-0.0100625
-0.0109868
-0.0119038
-0.0124528
-0.0124315
-0.000885306
-0.00225369
-0.0028913
-0.00308918
-0.00411999
-0.00455699
-0.00529027
-0.00586645
-0.0056279
-0.00611644
-0.00703633
-0.00740414
-0.00783142
-0.00867283
-0.00951434
-0.010293
-0.0112248
-0.0121736
-0.0127717
-0.0127588
-0.000935079
-0.00222222
-0.0028794
-0.0030569
-0.00409143
-0.00462027
-0.00530593
-0.00589886
-0.00569913
-0.00610662
-0.00704259
-0.0074979
-0.00791667
-0.00875594
-0.00967791
-0.0105222
-0.0114647
-0.0124326
-0.0130737
-0.0130758
-0.000983922
-0.00219187
-0.00287106
-0.00302993
-0.00405812
-0.0046857
-0.00533051
-0.00592292
-0.00577268
-0.00610951
-0.00704142
-0.00758653
-0.00801512
-0.0088435
-0.00983039
-0.010746
-0.0117051
-0.0126827
-0.013358
-0.0133793
-0.00103102
-0.00216232
-0.00286629
-0.00301349
-0.00402268
-0.00475065
-0.00536236
-0.00593883
-0.00584503
-0.00612581
-0.0070364
-0.00766623
-0.00812192
-0.00893765
-0.00997405
-0.0109615
-0.0119439
-0.0129248
-0.0136242
-0.0136662
-0.00107518
-0.00213123
-0.00286428
-0.00301568
-0.00399566
-0.00481101
-0.00539742
-0.00594724
-0.00591295
-0.00615538
-0.00703212
-0.00773489
-0.00823208
-0.00903847
-0.0101108
-0.0111656
-0.0121773
-0.0131581
-0.0138715
-0.013933
-0.00111401
-0.00208794
-0.00286843
-0.00304931
-0.00398034
-0.00485395
-0.00543334
-0.00594864
-0.0059729
-0.00619592
-0.0070324
-0.00779284
-0.00834073
-0.00914446
-0.0102418
-0.0113564
-0.0124016
-0.0133814
-0.0140992
-0.0141762
-0.0011447
-0.00204653
-0.00289141
-0.00309834
-0.00395916
-0.00488842
-0.00547494
-0.00594895
-0.00602216
-0.00624205
-0.00703927
-0.00784273
-0.00844513
-0.00925331
-0.0103674
-0.0115339
-0.0126154
-0.013595
-0.0143093
-0.0143953
-0.00118539
-0.0020128
-0.00289436
-0.00314381
-0.00395378
-0.00492686
-0.00552704
-0.00595642
-0.00606049
-0.00629012
-0.00705345
-0.00788753
-0.00854384
-0.00936159
-0.0104869
-0.0116983
-0.0128182
-0.0138002
-0.0145044
-0.0145914
-0.00123651
-0.00200818
-0.00287397
-0.00318384
-0.00395554
-0.00496008
-0.00558636
-0.00597233
-0.00609011
-0.00633579
-0.00707373
-0.00792854
-0.00863372
-0.00946422
-0.0105968
-0.0118472
-0.0130067
-0.0139947
-0.0146847
-0.0147644
-0.00126869
-0.00196303
-0.00291001
-0.00327805
-0.00396195
-0.00497179
-0.00564397
-0.00599731
-0.00611345
-0.00637319
-0.00709601
-0.00796651
-0.00871324
-0.00955666
-0.0106942
-0.0119777
-0.0131772
-0.0141756
-0.0148498
-0.0149143
-0.0013093
-0.00195065
-0.0029304
-0.00336713
-0.0039742
-0.0049713
-0.0056983
-0.00603483
-0.00613586
-0.00640119
-0.00711629
-0.00800162
-0.00878319
-0.00963771
-0.0107766
-0.0120879
-0.0133281
-0.014343
-0.0150028
-0.0150458
-0.00136641
-0.00193751
-0.00293221
-0.00345226
-0.00400565
-0.00497164
-0.00574918
-0.0060832
-0.0061605
-0.00641892
-0.00712945
-0.0080311
-0.0088444
-0.00970845
-0.0108426
-0.0121744
-0.0134561
-0.0144958
-0.0151468
-0.0151647
-0.00142937
-0.00193589
-0.00292308
-0.0035385
-0.00405804
-0.00497469
-0.00579225
-0.00613896
-0.00619056
-0.00642843
-0.00713061
-0.00805058
-0.00889728
-0.00977007
-0.0108921
-0.0122327
-0.0135526
-0.0146249
-0.0152764
-0.0152705
-0.00149397
-0.00194705
-0.00292704
-0.00362667
-0.00412598
-0.00497843
-0.00582151
-0.00619744
-0.00622952
-0.00643262
-0.00711513
-0.00805298
-0.00893811
-0.00982231
-0.0109251
-0.0122604
-0.0136099
-0.0147199
-0.015384
-0.0153617
-0.00155965
-0.00196894
-0.00294678
-0.0037189
-0.00420862
-0.00498574
-0.00583663
-0.00625321
-0.00627671
-0.00643423
-0.00708171
-0.00803227
-0.00895962
-0.0098612
-0.0109419
-0.0122582
-0.0136252
-0.0147735
-0.0154623
-0.0154357
-0.00163782
-0.0020113
-0.00296356
-0.00380599
-0.00430563
-0.005005
-0.00584258
-0.00630176
-0.0063297
-0.00643682
-0.0070331
-0.00798437
-0.00895263
-0.00987773
-0.010939
-0.0122271
-0.0135977
-0.014779
-0.0155016
-0.0154847
-0.00172799
-0.00206591
-0.00298248
-0.00388801
-0.00441695
-0.00504207
-0.00584156
-0.00633598
-0.00638317
-0.00644387
-0.00697348
-0.00790836
-0.0089107
-0.00986385
-0.0109124
-0.0121685
-0.0135289
-0.0147344
-0.0154934
-0.015499
-0.00183472
-0.00212902
-0.00300671
-0.00396405
-0.00453879
-0.00509621
-0.00583593
-0.00635383
-0.00643257
-0.00645688
-0.00690798
-0.00780319
-0.00882659
-0.00981094
-0.0108555
-0.0120797
-0.0134189
-0.0146371
-0.0154303
-0.0154668
-0.00195786
-0.00224319
-0.00302945
-0.00403244
-0.00466681
-0.00516749
-0.00583189
-0.00635621
-0.00647223
-0.00647184
-0.00683675
-0.00766582
-0.00869033
-0.00970496
-0.0107542
-0.0119503
-0.0132619
-0.0144813
-0.0153038
-0.0153776
-0.00207288
-0.00232351
-0.0031252
-0.00413246
-0.00479832
-0.00525168
-0.00583024
-0.00634244
-0.00649392
-0.00647947
-0.00675736
-0.0074991
-0.00850114
-0.00953771
-0.0105966
-0.0117695
-0.0130513
-0.0142642
-0.0151108
-0.0152278
-0.00220776
-0.00246656
-0.00322688
-0.00423053
-0.00492942
-0.0053487
-0.00583816
-0.00631809
-0.00649631
-0.00647446
-0.00666876
-0.00730657
-0.00825734
-0.00929751
-0.0103646
-0.0115196
-0.012772
-0.0139758
-0.0148453
-0.0150011
-0.00237401
-0.00261221
-0.00334508
-0.00432807
-0.00505979
-0.00546189
-0.00586559
-0.0062918
-0.0064794
-0.0064512
-0.00656595
-0.00708637
-0.00795566
-0.00897438
-0.0100423
-0.0111832
-0.012408
-0.0135952
-0.0144782
-0.0146795
-0.00256823
-0.00280836
-0.00347043
-0.00443014
-0.00519051
-0.00558839
-0.00591691
-0.0062731
-0.00644631
-0.00640518
-0.00644173
-0.00683425
-0.007592
-0.00855669
-0.00960611
-0.0107313
-0.01193
-0.0130966
-0.0139909
-0.014243
-0.00277976
-0.00299948
-0.00365047
-0.0045601
-0.00532225
-0.00572542
-0.00599903
-0.00627761
-0.0064087
-0.00633668
-0.00629
-0.00654353
-0.0071614
-0.00802758
-0.00902177
-0.0101092
-0.0112782
-0.0124343
-0.0133514
-0.0136663
-0.00301894
-0.00322778
-0.00384364
-0.00469968
-0.00544821
-0.0058713
-0.00611883
-0.00631825
-0.00638751
-0.00626356
-0.0061202
-0.00621615
-0.0066581
-0.00737622
-0.00826649
-0.00928654
-0.0104114
-0.0115586
-0.0125124
-0.0129141
-0.00333638
-0.00349193
-0.00404716
-0.00479103
-0.00552306
-0.00602357
-0.00627865
-0.00639699
-0.00638906
-0.00620546
-0.00595055
-0.00585878
-0.0060737
-0.00658095
-0.00730253
-0.00819588
-0.00924587
-0.0103761
-0.0113878
-0.0119236
-0.00372072
-0.00396956
-0.00430248
-0.00483116
-0.00553714
-0.00618375
-0.00643479
-0.00646827
-0.00639547
-0.00617029
-0.00581214
-0.00549221
-0.0053957
-0.00557618
-0.00602752
-0.00671194
-0.00759693
-0.00866862
-0.00977058
-0.0105408
-0.00399742
-0.00410837
-0.00462553
-0.00527358
-0.0059222
-0.00638693
-0.00655455
-0.00651299
-0.00638148
-0.00616255
-0.0057816
-0.00525607
-0.00470815
-0.00432657
-0.00424361
-0.00449039
-0.00504302
-0.00582131
-0.00674532
-0.00765221
-0.00435078
-0.00449821
-0.00502458
-0.00567371
-0.00624011
-0.00656201
-0.00664148
-0.00655267
-0.00634459
-0.00608212
-0.00588447
-0.00549955
-0.0045705
-0.00355158
-0.00291683
-0.00268509
-0.00261616
-0.00249193
-0.00221758
-0.00190553
-0.00481452
-0.00499067
-0.00543745
-0.00601194
-0.00648444
-0.00670595
-0.00669206
-0.00659286
-0.0063758
-0.00563469
-0.00464078
-0.00370616
-0.00293814
-0.00233761
-0.00181362
-0.0012575
-0.000594851
0.000171806
0.000874564
0.00113453
-0.00535813
-0.00550095
-0.00591165
-0.00634954
-0.00664928
-0.00681346
-0.00668754
-0.00603366
-0.00525602
-0.00454477
-0.0039127
-0.00332756
-0.00271589
-0.00199441
-0.00113758
-0.000167795
0.000858584
0.00182757
0.00252671
0.00260947
-0.00603153
-0.00607398
-0.00639984
-0.0066832
-0.00662557
-0.00627049
-0.00580395
-0.00529021
-0.00479333
-0.00432852
-0.00380263
-0.00314195
-0.0023143
-0.00133203
-0.000243807
0.000907934
0.00205946
0.00307569
0.00373019
0.00368848
-0.00685182
-0.00692033
-0.00669717
-0.00640512
-0.00608732
-0.00575961
-0.00542525
-0.00507495
-0.00466332
-0.00415904
-0.00351672
-0.00269965
-0.00172256
-0.000625039
0.000562453
0.00178949
0.00297008
0.00396865
0.00456876
0.00444249
-0.00752401
-0.00743894
-0.00693696
-0.00632621
-0.00583063
-0.00547591
-0.00517589
-0.00484356
-0.00441
-0.00383343
-0.00310041
-0.00221098
-0.00117659
-2.18711e-05
0.0012111
0.00246371
0.0036485
0.00462788
0.0051857
0.00499711
-0.00803834
-0.00785335
-0.00722601
-0.00643542
-0.00574559
-0.00525225
-0.00488941
-0.00452373
-0.00406181
-0.0034591
-0.00269929
-0.00178107
-0.000717107
0.000465891
0.00172414
0.00299362
0.00418094
0.00514425
0.00566682
0.00542712
-0.00848281
-0.00822294
-0.00748983
-0.00655295
-0.00569702
-0.00505964
-0.00459933
-0.00419155
-0.0037206
-0.00311496
-0.00234587
-0.00141262
-0.000329673
0.000872764
0.0021475
0.00342623
0.00461108
0.00555739
0.00604877
0.00576682
-0.00886102
-0.00854903
-0.00770559
-0.00665061
-0.00566595
-0.00490639
-0.0043582
-0.00390641
-0.00342204
-0.00281611
-0.00204529
-0.00110276
-5.75652e-06
0.00121042
0.00249471
0.00377601
0.00495433
0.00588406
0.00634957
0.00603474
-0.00915888
-0.00879435
-0.00788839
-0.0067415
-0.00565496
-0.00479823
-0.00417493
-0.00367842
-0.00317469
-0.00256313
-0.0017906
-0.000844888
0.000258207
0.00148135
0.00276925
0.0040491
0.00521989
0.00613575
0.00658167
0.00624298
-0.00938224
-0.00898991
-0.00803186
-0.00682334
-0.00566743
-0.00474164
-0.00405887
-0.00351743
-0.00298298
-0.00235022
-0.00156305
-0.000608548
0.000497065
0.00171781
0.00300214
0.00427588
0.00543743
0.00634065
0.00677135
0.0064152
-0.00952294
-0.0091216
-0.008141
-0.0069004
-0.00570833
-0.00474542
-0.00402646
-0.00345144
-0.00288962
-0.00223559
-0.00142834
-0.000453098
0.000671276
0.00190424
0.00319057
0.00445953
0.00561393
0.00650545
0.0069277
0.0065652
0.00509864
0.000462799
-0.00664697
-0.0117473
-0.0127762
-0.011461
-0.00991715
-0.00885971
-0.00825939
-0.00794532
-0.00779688
-0.00775195
-0.00777406
-0.00783428
-0.00791092
-0.00799004
-0.00806277
-0.00812527
-0.0081796
-0.00823068
-0.00828183
-0.00833358
-0.00838512
-0.00843636
-0.00848905
-0.00854579
-0.00860747
-0.00867269
-0.00873957
-0.00880751
-0.00887661
-0.00894651
-0.00901633
-0.00908542
-0.0091533
-0.00921953
-0.00928352
-0.00934527
-0.00940531
-0.00946421
-0.0095218
-0.00957744
-0.0096307
-0.00968199
-0.0097319
-0.00978079
-0.00982823
-0.00987395
-0.00991796
-0.00996063
-0.0100022
-0.0100427
-0.0100822
-0.0101205
-0.010158
-0.0101947
-0.0102308
-0.0102662
-0.0103006
-0.0103339
-0.0103663
-0.0103978
-0.0104287
-0.0104587
-0.0104875
-0.0105151
-0.0105419
-0.0105681
-0.0105937
-0.0106185
-0.0106426
-0.010666
-0.0106891
-0.0107117
-0.0107337
-0.0107554
-0.0107768
-0.0107981
-0.0108192
-0.0108401
-0.0108606
-0.010881
-0.0109012
-0.0109215
-0.0109415
-0.0109611
-0.0109802
-0.0109992
-0.0110179
-0.0110363
-0.0110542
-0.0110719
-0.0110893
-0.0111063
-0.0111229
-0.011139
-0.011155
-0.0111706
-0.0111858
-0.0112003
-0.0112146
-0.0112283
-0.0112418
-0.0112547
-0.0112673
-0.0112793
-0.0112911
-0.0113025
-0.0113136
-0.0113245
-0.011335
-0.0113454
-0.0113552
-0.011365
-0.0113743
-0.0113836
-0.0113921
-0.0114005
-0.0114083
-0.0114159
-0.011423
-0.0114298
-0.0114362
-0.011442
-0.0114475
-0.0114524
-0.0114574
-0.0114614
-0.0114655
-0.0114685
-0.0114716
-0.011474
-0.0114763
-0.011478
-0.0114791
-0.0114801
-0.0114803
-0.0114806
-0.0114799
-0.0114794
-0.0114776
-0.0114759
-0.0114735
-0.0114709
-0.0114676
-0.0114635
-0.0114595
-0.0114544
-0.0114498
-0.0114434
-0.0114375
-0.0114303
-0.0114235
-0.0114158
-0.0114073
-0.0113986
-0.0113887
-0.0113797
-0.0113684
-0.0113578
-0.0113453
-0.0113336
-0.0113208
-0.011307
-0.0112935
-0.0112782
-0.0112644
-0.0112476
-0.0112321
-0.0112147
-0.0111976
-0.0111799
-0.01116
-0.0111421
-0.0111205
-0.0111016
-0.0110786
-0.0110572
-0.0110344
-0.0110101
-0.0109874
-0.0109604
-0.010937
-0.0109092
-0.0108828
-0.0108555
-0.010825
-0.0107985
-0.0107642
-0.010736
-0.0107005
-0.0106679
-0.010633
-0.0105942
-0.0105586
-0.0105162
-0.0104743
-0.0104337
-0.0103851
-0.0103571
0.00438325
0.000278662
-0.006572
-0.0116092
-0.012693
-0.0114215
-0.00989236
-0.00884212
-0.00824668
-0.0079357
-0.00778918
-0.00774551
-0.00776852
-0.00782943
-0.00790661
-0.00798618
-0.00805928
-0.00812209
-0.00817668
-0.00822797
-0.00827932
-0.00833124
-0.00838293
-0.00843431
-0.00848713
-0.00854398
-0.00860576
-0.00867108
-0.00873805
-0.00880607
-0.00887525
-0.00894522
-0.00901511
-0.00908426
-0.0091522
-0.00921848
-0.00928251
-0.00934431
-0.00940439
-0.00946333
-0.00952096
-0.00957664
-0.00962992
-0.00968125
-0.00973119
-0.0097801
-0.00982758
-0.00987332
-0.00991735
-0.00996004
-0.0100016
-0.0100422
-0.0100817
-0.01012
-0.0101575
-0.0101942
-0.0102303
-0.0102657
-0.0103002
-0.0103335
-0.0103659
-0.0103974
-0.0104283
-0.0104583
-0.0104872
-0.0105148
-0.0105416
-0.0105678
-0.0105934
-0.0106182
-0.0106423
-0.0106657
-0.0106888
-0.0107114
-0.0107335
-0.0107551
-0.0107765
-0.0107979
-0.010819
-0.0108399
-0.0108604
-0.0108808
-0.010901
-0.0109213
-0.0109413
-0.0109609
-0.01098
-0.010999
-0.0110177
-0.0110361
-0.0110541
-0.0110717
-0.0110891
-0.0111061
-0.0111227
-0.0111389
-0.0111549
-0.0111704
-0.0111856
-0.0112002
-0.0112144
-0.0112282
-0.0112417
-0.0112545
-0.0112671
-0.0112792
-0.011291
-0.0113024
-0.0113134
-0.0113243
-0.0113349
-0.0113453
-0.0113551
-0.0113649
-0.0113742
-0.0113835
-0.011392
-0.0114004
-0.0114082
-0.0114158
-0.0114229
-0.0114297
-0.0114361
-0.0114419
-0.0114474
-0.0114523
-0.0114573
-0.0114614
-0.0114654
-0.0114685
-0.0114716
-0.011474
-0.0114762
-0.0114779
-0.011479
-0.01148
-0.0114802
-0.0114805
-0.0114798
-0.0114793
-0.0114775
-0.0114759
-0.0114734
-0.0114708
-0.0114676
-0.0114635
-0.0114594
-0.0114543
-0.0114497
-0.0114434
-0.0114375
-0.0114303
-0.0114235
-0.0114158
-0.0114072
-0.0113986
-0.0113887
-0.0113797
-0.0113683
-0.0113577
-0.0113452
-0.0113336
-0.0113208
-0.0113069
-0.0112935
-0.0112782
-0.0112644
-0.0112475
-0.0112321
-0.0112147
-0.0111975
-0.0111799
-0.01116
-0.0111421
-0.0111205
-0.0111015
-0.0110786
-0.0110571
-0.0110344
-0.0110101
-0.0109874
-0.0109604
-0.010937
-0.0109092
-0.0108828
-0.0108555
-0.0108249
-0.0107985
-0.0107642
-0.010736
-0.0107005
-0.0106678
-0.010633
-0.0105942
-0.0105586
-0.0105162
-0.0104742
-0.0104336
-0.0103851
-0.0103571
0.00362607
8.84094e-05
-0.0064068
-0.0113494
-0.0125426
-0.0113628
-0.00986109
-0.00881792
-0.00822749
-0.00792094
-0.00777782
-0.0077366
-0.00776134
-0.00782347
-0.00790152
-0.00798174
-0.00805536
-0.00811859
-0.00817352
-0.0082251
-0.00827668
-0.0083288
-0.00838067
-0.0084322
-0.00848515
-0.00854212
-0.00860402
-0.00866944
-0.00873651
-0.00880461
-0.00887387
-0.00894393
-0.00901388
-0.0090831
-0.00915109
-0.00921744
-0.00928152
-0.00934337
-0.00940349
-0.00946247
-0.00952013
-0.00957585
-0.00962917
-0.00968052
-0.00973049
-0.00977943
-0.00982693
-0.0098727
-0.00991676
-0.00995947
-0.0100011
-0.0100417
-0.0100811
-0.0101195
-0.010157
-0.0101937
-0.0102299
-0.0102653
-0.0102998
-0.0103331
-0.0103655
-0.010397
-0.010428
-0.010458
-0.0104868
-0.0105144
-0.0105412
-0.0105675
-0.0105931
-0.0106179
-0.010642
-0.0106654
-0.0106885
-0.0107111
-0.0107332
-0.0107549
-0.0107763
-0.0107976
-0.0108187
-0.0108396
-0.0108601
-0.0108805
-0.0109008
-0.0109211
-0.0109411
-0.0109607
-0.0109798
-0.0109988
-0.0110176
-0.011036
-0.0110539
-0.0110716
-0.011089
-0.011106
-0.0111225
-0.0111387
-0.0111547
-0.0111703
-0.0111855
-0.0112
-0.0112143
-0.011228
-0.0112415
-0.0112544
-0.011267
-0.0112791
-0.0112909
-0.0113023
-0.0113133
-0.0113242
-0.0113348
-0.0113452
-0.011355
-0.0113648
-0.0113741
-0.0113834
-0.0113919
-0.0114004
-0.0114081
-0.0114157
-0.0114228
-0.0114296
-0.011436
-0.0114418
-0.0114474
-0.0114522
-0.0114572
-0.0114613
-0.0114653
-0.0114684
-0.0114715
-0.0114739
-0.0114761
-0.0114778
-0.011479
-0.01148
-0.0114801
-0.0114805
-0.0114798
-0.0114793
-0.0114775
-0.0114758
-0.0114733
-0.0114708
-0.0114675
-0.0114634
-0.0114594
-0.0114543
-0.0114497
-0.0114433
-0.0114374
-0.0114302
-0.0114234
-0.0114157
-0.0114072
-0.0113985
-0.0113886
-0.0113797
-0.0113683
-0.0113577
-0.0113452
-0.0113336
-0.0113207
-0.0113069
-0.0112934
-0.0112781
-0.0112643
-0.0112475
-0.011232
-0.0112147
-0.0111975
-0.0111799
-0.01116
-0.011142
-0.0111204
-0.0111015
-0.0110785
-0.0110571
-0.0110344
-0.0110101
-0.0109873
-0.0109603
-0.010937
-0.0109092
-0.0108827
-0.0108554
-0.0108249
-0.0107985
-0.0107642
-0.010736
-0.0107005
-0.0106678
-0.010633
-0.0105942
-0.0105586
-0.0105162
-0.0104742
-0.0104336
-0.010385
-0.0103571
0.00290967
-8.09542e-05
-0.00617429
-0.011006
-0.0123335
-0.0112795
-0.00981703
-0.00878191
-0.0081977
-0.00789797
-0.00776056
-0.0077235
-0.00775112
-0.0078152
-0.00789459
-0.00797578
-0.00805018
-0.00811407
-0.00816957
-0.0082216
-0.00827352
-0.00832592
-0.00837802
-0.00842977
-0.00848291
-0.00854005
-0.00860208
-0.00866762
-0.00873479
-0.008803
-0.00887236
-0.00894251
-0.00901255
-0.00908184
-0.0091499
-0.00921631
-0.00928046
-0.00934236
-0.00940254
-0.00946157
-0.00951927
-0.00957502
-0.00962837
-0.00967977
-0.00972977
-0.00977873
-0.00982626
-0.00987206
-0.00991614
-0.00995888
-0.0100005
-0.0100411
-0.0100806
-0.010119
-0.0101565
-0.0101933
-0.0102294
-0.0102648
-0.0102993
-0.0103327
-0.0103651
-0.0103967
-0.0104276
-0.0104576
-0.0104865
-0.0105141
-0.0105409
-0.0105671
-0.0105928
-0.0106176
-0.0106417
-0.0106652
-0.0106882
-0.0107109
-0.010733
-0.0107546
-0.010776
-0.0107974
-0.0108185
-0.0108394
-0.0108599
-0.0108803
-0.0109006
-0.0109209
-0.0109409
-0.0109605
-0.0109796
-0.0109987
-0.0110174
-0.0110358
-0.0110537
-0.0110714
-0.0110888
-0.0111058
-0.0111224
-0.0111386
-0.0111546
-0.0111701
-0.0111853
-0.0111999
-0.0112142
-0.0112279
-0.0112414
-0.0112543
-0.0112669
-0.011279
-0.0112907
-0.0113021
-0.0113132
-0.0113241
-0.0113347
-0.0113451
-0.0113549
-0.0113647
-0.011374
-0.0113833
-0.0113919
-0.0114003
-0.011408
-0.0114156
-0.0114227
-0.0114295
-0.0114359
-0.0114417
-0.0114473
-0.0114522
-0.0114571
-0.0114612
-0.0114652
-0.0114683
-0.0114714
-0.0114738
-0.0114761
-0.0114778
-0.0114789
-0.0114799
-0.0114801
-0.0114804
-0.0114797
-0.0114792
-0.0114774
-0.0114758
-0.0114733
-0.0114707
-0.0114675
-0.0114634
-0.0114593
-0.0114542
-0.0114496
-0.0114433
-0.0114374
-0.0114302
-0.0114234
-0.0114157
-0.0114071
-0.0113985
-0.0113886
-0.0113796
-0.0113682
-0.0113576
-0.0113452
-0.0113335
-0.0113207
-0.0113069
-0.0112934
-0.0112781
-0.0112643
-0.0112474
-0.011232
-0.0112146
-0.0111975
-0.0111798
-0.0111599
-0.011142
-0.0111204
-0.0111015
-0.0110785
-0.0110571
-0.0110343
-0.01101
-0.0109873
-0.0109603
-0.0109369
-0.0109091
-0.0108827
-0.0108554
-0.0108249
-0.0107985
-0.0107641
-0.0107359
-0.0107005
-0.0106678
-0.010633
-0.0105942
-0.0105585
-0.0105162
-0.0104742
-0.0104336
-0.010385
-0.010357
0.00222705
-0.000257141
-0.00592251
-0.0106326
-0.0120985
-0.0111847
-0.00976652
-0.00873715
-0.008158
-0.00786617
-0.00773621
-0.00770486
-0.00773653
-0.00780339
-0.00788471
-0.0079673
-0.00804282
-0.00810769
-0.00816407
-0.00821683
-0.00826929
-0.00832209
-0.00837452
-0.0084266
-0.00848004
-0.00853743
-0.00859965
-0.00866534
-0.00873264
-0.00880098
-0.00887048
-0.00894075
-0.0090109
-0.00908029
-0.00914844
-0.00921493
-0.00927916
-0.00934115
-0.0094014
-0.00946049
-0.00951825
-0.00957404
-0.00962744
-0.00967888
-0.00972892
-0.00977792
-0.00982548
-0.00987131
-0.00991542
-0.00995819
-0.00999984
-0.0100405
-0.01008
-0.0101185
-0.010156
-0.0101927
-0.0102289
-0.0102644
-0.0102989
-0.0103322
-0.0103646
-0.0103962
-0.0104272
-0.0104572
-0.0104861
-0.0105137
-0.0105405
-0.0105668
-0.0105924
-0.0106173
-0.0106414
-0.0106649
-0.0106879
-0.0107106
-0.0107327
-0.0107544
-0.0107758
-0.0107971
-0.0108183
-0.0108392
-0.0108597
-0.0108801
-0.0109004
-0.0109207
-0.0109407
-0.0109603
-0.0109794
-0.0109985
-0.0110172
-0.0110356
-0.0110535
-0.0110712
-0.0110886
-0.0111056
-0.0111222
-0.0111384
-0.0111544
-0.01117
-0.0111852
-0.0111997
-0.011214
-0.0112278
-0.0112413
-0.0112542
-0.0112668
-0.0112788
-0.0112906
-0.011302
-0.0113131
-0.011324
-0.0113346
-0.011345
-0.0113548
-0.0113646
-0.0113739
-0.0113832
-0.0113918
-0.0114002
-0.0114079
-0.0114155
-0.0114226
-0.0114294
-0.0114358
-0.0114416
-0.0114472
-0.0114521