/*--------------------------------*- C++ -*----------------------------------*\
| =========                 |                                                 |
| \\      /  F ield         | OpenFOAM: The Open Source CFD Toolbox           |
|  \\    /   O peration     | Version:  v2012                                 |
|   \\  /    A nd           | Website:  www.openfoam.com                      |
|    \\/     M anipulation  |                                                 |
\*---------------------------------------------------------------------------*/
FoamFile
{
    version     2.0;
    format      ascii;
    class       surfaceScalarField;
    location    "4.95";
    object      phi;
}
// * * * * * * * * * * * * * * * * * * * * * * * * * * * * * * * * * * * * * //

dimensions      [0 3 -1 0 0 0 0];
oriented        oriented;


internalField   nonuniform List<scalar> 
34900
(
1.1735e-06
4.8157e-07
1.15108e-06
-6.53236e-07
1.16681e-06
4.60008e-07
1.14605e-06
-1.57011e-07
1.15604e-06
-2.45132e-08
1.14757e-06
9.37112e-08
1.15463e-06
-4.75703e-08
1.14497e-06
-3.05779e-08
1.15375e-06
-9.9085e-09
1.14546e-06
-4.15231e-08
1.15503e-06
2.04206e-08
1.14676e-06
-1.39709e-08
1.15635e-06
5.88969e-08
1.14694e-06
1.16506e-08
1.15607e-06
7.42192e-08
1.14475e-06
2.09917e-08
1.15312e-06
8.04949e-08
1.14018e-06
2.46055e-08
1.14319e-06
9.30312e-08
3.3259e-08
1.10757e-06
1.22547e-06
4.80364e-07
1.20318e-06
-6.30948e-07
1.21602e-06
4.47164e-07
1.19876e-06
-1.39745e-07
1.2067e-06
-3.24555e-08
1.20322e-06
9.71879e-08
1.2081e-06
-5.24485e-08
1.20172e-06
-2.41955e-08
1.20717e-06
-1.53565e-08
1.20339e-06
-3.77487e-08
1.20777e-06
1.60434e-08
1.20644e-06
-1.26365e-08
1.20788e-06
5.74549e-08
1.20909e-06
1.04382e-08
1.20562e-06
7.76915e-08
1.21041e-06
1.61944e-08
1.19954e-06
9.13705e-08
1.20947e-06
1.46766e-08
1.18529e-06
1.17207e-07
2.77027e-08
1.19085e-06
1.28016e-06
4.82987e-07
1.2582e-06
-6.08991e-07
1.26639e-06
4.38977e-07
1.25572e-06
-1.2907e-07
1.25851e-06
-3.52512e-08
1.26236e-06
9.33394e-08
1.26279e-06
-5.28745e-08
1.26294e-06
-2.43537e-08
1.26225e-06
-1.46616e-08
1.26553e-06
-4.10303e-08
1.2629e-06
1.86737e-08
1.269e-06
-1.8732e-08
1.26348e-06
6.29754e-08
1.27136e-06
2.55567e-09
1.26297e-06
8.60814e-08
1.27094e-06
8.21843e-09
1.26095e-06
1.01366e-07
1.26586e-06
9.76334e-09
1.25485e-06
1.28218e-07
4.01888e-08
1.24236e-06
1.33872e-06
4.88368e-07
1.3186e-06
-5.88867e-07
1.3211e-06
4.36474e-07
1.31868e-06
-1.26647e-07
1.31486e-06
-3.14372e-08
1.32484e-06
8.33617e-08
1.32166e-06
-4.96917e-08
1.32648e-06
-2.91722e-08
1.32181e-06
-9.99853e-09
1.32863e-06
-4.78421e-08
1.32344e-06
2.38644e-08
1.33093e-06
-2.6229e-08
1.3257e-06
6.82115e-08
1.3322e-06
-3.94421e-09
1.32753e-06
9.07498e-08
1.33121e-06
4.53243e-09
1.32776e-06
1.04823e-07
1.32634e-06
1.11845e-08
1.32279e-06
1.31767e-07
5.65619e-08
1.30641e-06
1.40198e-06
4.94744e-07
1.3847e-06
-5.71593e-07
1.38246e-06
4.38718e-07
1.38698e-06
-1.31171e-07
1.37827e-06
-2.27281e-08
1.39082e-06
7.0817e-08
1.38676e-06
-4.56319e-08
1.39259e-06
-3.50054e-08
1.38761e-06
-5.01551e-09
1.39385e-06
-5.40843e-08
1.39e-06
2.7716e-08
1.39528e-06
-3.15104e-08
1.39303e-06
7.04586e-08
1.39657e-06
-7.47964e-09
1.39542e-06
9.19039e-08
1.39638e-06
3.57263e-09
1.39573e-06
1.05473e-07
1.39215e-06
1.47595e-08
1.39062e-06
1.333e-07
7.27915e-08
1.37439e-06
1.47021e-06
5.00213e-07
1.45599e-06
-5.57374e-07
1.45129e-06
4.43414e-07
1.45951e-06
-1.39386e-07
1.44931e-06
-1.25279e-08
1.46103e-06
5.90913e-08
1.45824e-06
-4.28378e-08
1.46278e-06
-3.95496e-08
1.45932e-06
-1.5552e-09
1.46347e-06
-5.82263e-08
1.46151e-06
2.96703e-08
1.4645e-06
-3.44958e-08
1.46414e-06
7.08171e-08
1.46595e-06
-9.29406e-09
1.46621e-06
9.16431e-08
1.46607e-06
3.71904e-09
1.46645e-06
1.05087e-07
1.46166e-06
1.95567e-08
1.46154e-06
1.33419e-07
8.89443e-08
1.44538e-06
1.54308e-06
5.03346e-07
1.53152e-06
-5.45813e-07
1.52681e-06
4.48123e-07
1.53546e-06
-1.48029e-07
1.52656e-06
-3.62827e-09
1.53589e-06
4.97605e-08
1.53467e-06
-4.16212e-08
1.53761e-06
-4.2491e-08
1.53549e-06
5.66667e-10
1.53788e-06
-6.06162e-08
1.53684e-06
3.07129e-08
1.53843e-06
-3.60836e-08
1.53868e-06
7.056e-08
1.53959e-06
-1.01972e-08
1.5404e-06
9.08291e-08
1.53942e-06
4.69948e-09
1.54063e-06
1.03875e-07
1.53455e-06
2.56324e-08
1.5357e-06
1.3227e-07
1.04737e-07
1.51991e-06
1.61986e-06
5.03618e-07
1.61034e-06
-5.36299e-07
1.60721e-06
4.51254e-07
1.61431e-06
-1.55123e-07
1.6078e-06
2.87328e-09
1.61482e-06
4.27443e-08
1.6144e-06
-4.12012e-08
1.61634e-06
-4.44283e-08
1.6148e-06
2.10107e-09
1.61615e-06
-6.19603e-08
1.61527e-06
3.15902e-08
1.61602e-06
-3.68288e-08
1.61641e-06
7.01609e-08
1.61659e-06
-1.03707e-08
1.61782e-06
8.95926e-08
1.61591e-06
6.61248e-09
1.61795e-06
1.01837e-07
1.61063e-06
3.29517e-08
1.61271e-06
1.30195e-07
1.19656e-07
1.59779e-06
1.69983e-06
5.01365e-07
1.69178e-06
-5.28249e-07
1.69079e-06
4.52243e-07
1.69574e-06
-1.60071e-07
1.69144e-06
7.17057e-09
1.69687e-06
3.73143e-08
1.6965e-06
-4.08342e-08
1.69798e-06
-4.59115e-08
1.69661e-06
3.4779e-09
1.69737e-06
-6.27227e-08
1.69647e-06
3.24902e-08
1.69659e-06
-3.69492e-08
1.69711e-06
6.96371e-08
1.69655e-06
-9.80183e-09
1.69826e-06
8.78745e-08
1.69533e-06
9.54682e-09
1.69815e-06
9.90152e-08
1.68975e-06
4.13506e-08
1.69233e-06
1.27614e-07
1.33221e-07
1.67877e-06
1.78274e-06
4.97348e-07
1.77564e-06
-5.21147e-07
1.7767e-06
4.51174e-07
1.77971e-06
-1.63072e-07
1.77699e-06
9.89029e-09
1.78146e-06
3.28407e-08
1.78086e-06
-4.02346e-08
1.78214e-06
-4.71904e-08
1.78086e-06
4.75824e-09
1.78128e-06
-6.31436e-08
1.78048e-06
3.3293e-08
1.78007e-06
-3.6543e-08
1.78087e-06
6.8841e-08
1.77953e-06
-8.46474e-09
1.78183e-06
8.55773e-08
1.77785e-06
1.35225e-08
1.78134e-06
9.55294e-08
1.77214e-06
5.05509e-08
1.77475e-06
1.25002e-07
1.4503e-07
1.76294e-06
1.8688e-06
4.92296e-07
1.86219e-06
-5.14537e-07
1.86502e-06
4.48344e-07
1.86649e-06
-1.64538e-07
1.86482e-06
1.15565e-08
1.86867e-06
2.89949e-08
1.86787e-06
-3.94414e-08
1.869e-06
-4.83154e-08
1.86792e-06
5.83949e-09
1.86811e-06
-6.33363e-08
1.86762e-06
3.37858e-08
1.86675e-06
-3.56711e-08
1.86801e-06
6.7576e-08
1.86591e-06
-6.36046e-09
1.86887e-06
8.26143e-08
1.86393e-06
1.84665e-08
1.86787e-06
9.15844e-08
1.85825e-06
6.01698e-08
1.86039e-06
1.2286e-07
1.54784e-07
1.85064e-06
1.95847e-06
4.86669e-07
1.95197e-06
-5.08037e-07
1.95628e-06
4.44031e-07
1.95655e-06
-1.64807e-07
1.95565e-06
1.24563e-08
1.95898e-06
2.56677e-08
1.95814e-06
-3.86025e-08
1.95907e-06
-4.92477e-08
1.95831e-06
6.59533e-09
1.9583e-06
-6.33239e-08
1.95832e-06
3.37672e-08
1.95701e-06
-3.43593e-08
1.95893e-06
6.56558e-08
1.95609e-06
-3.52037e-09
1.95975e-06
7.89491e-08
1.95402e-06
2.4201e-08
1.95814e-06
8.74675e-08
1.94855e-06
6.97582e-08
1.9498e-06
1.21611e-07
1.62352e-07
1.94223e-06
2.05219e-06
4.80666e-07
2.04552e-06
-5.01363e-07
2.05111e-06
4.38436e-07
2.05039e-06
-1.64082e-07
2.05015e-06
1.26948e-08
2.05296e-06
2.28545e-08
2.05223e-06
-3.78721e-08
2.05289e-06
-4.99097e-08
2.05257e-06
6.92153e-09
2.0523e-06
-6.30544e-08
2.05298e-06
3.30864e-08
2.05121e-06
-3.25924e-08
2.05392e-06
6.29476e-08
2.05041e-06
-7.13475e-12
2.05473e-06
7.46309e-08
2.04847e-06
3.0454e-08
2.05242e-06
8.3524e-08
2.04331e-06
7.88632e-08
2.04339e-06
1.21529e-07
1.67789e-07
2.03796e-06
2.15034e-06
4.74326e-07
2.14329e-06
-4.94316e-07
2.15003e-06
4.31696e-07
2.14843e-06
-1.62474e-07
2.14884e-06
1.22773e-08
2.15111e-06
2.0591e-08
2.15063e-06
-3.73963e-08
2.15093e-06
-5.02051e-08
2.15111e-06
6.73341e-09
2.15049e-06
-6.24252e-08
2.15192e-06
3.16483e-08
2.14966e-06
-3.03273e-08
2.1532e-06
5.94014e-08
2.14912e-06
4.07589e-09
2.15394e-06
6.9814e-08
2.1475e-06
3.68904e-08
2.15091e-06
8.01192e-08
2.14268e-06
8.70943e-08
2.14149e-06
1.22714e-07
1.71328e-07
2.13795e-06
2.25319e-06
4.67626e-07
2.24563e-06
-4.86761e-07
2.25343e-06
4.23899e-07
2.25099e-06
-1.60037e-07
2.25211e-06
1.11622e-08
2.25377e-06
1.89316e-08
2.25369e-06
-3.7321e-08
2.25352e-06
-5.00306e-08
2.2543e-06
5.95354e-09
2.25319e-06
-6.13176e-08
2.25543e-06
2.94065e-08
2.25263e-06
-2.75278e-08
2.25697e-06
5.50636e-08
2.25248e-06
8.56665e-09
2.25754e-06
6.47522e-08
2.25128e-06
4.31576e-08
2.25381e-06
7.75879e-08
2.24673e-06
9.41724e-08
2.24435e-06
1.25094e-07
1.73339e-07
2.24234e-06
2.36098e-06
4.60525e-07
2.35281e-06
-4.78595e-07
2.36162e-06
4.15089e-07
2.35837e-06
-1.56783e-07
2.36024e-06
9.28437e-09
2.36123e-06
1.79448e-08
2.3617e-06
-3.77929e-08
2.36096e-06
-4.92861e-08
2.3624e-06
4.50798e-09
2.36072e-06
-5.96304e-08
2.36376e-06
2.63606e-08
2.36044e-06
-2.42058e-08
2.36543e-06
5.00782e-08
2.36076e-06
1.32342e-08
2.36574e-06
5.97665e-08
2.35997e-06
4.89361e-08
2.36138e-06
7.61731e-08
2.35557e-06
9.99799e-08
2.35222e-06
1.28446e-07
1.74272e-07
2.35129e-06
2.47393e-06
4.52987e-07
2.46507e-06
-4.69733e-07
2.47489e-06
4.05273e-07
2.4708e-06
-1.52694e-07
2.47352e-06
6.56222e-09
2.47375e-06
1.771e-08
2.47491e-06
-3.89512e-08
2.47351e-06
-4.78839e-08
2.47568e-06
2.33622e-09
2.47336e-06
-5.73086e-08
2.47716e-06
2.25642e-08
2.47341e-06
-2.04542e-08
2.47881e-06
4.46765e-08
2.47425e-06
1.77912e-08
2.47882e-06
5.51933e-08
2.47378e-06
5.39816e-08
2.47397e-06
7.59809e-08
2.46937e-06
1.04583e-07
2.4654e-06
1.32417e-07
1.74598e-07
2.46507e-06
2.5923e-06
4.44979e-07
2.58267e-06
-4.60096e-07
2.59352e-06
3.94421e-07
2.58854e-06
-1.47719e-07
2.5922e-06
2.90216e-09
2.5916e-06
1.83125e-08
2.59357e-06
-4.09169e-08
2.59144e-06
-4.57604e-08
2.59437e-06
-5.89317e-10
2.59142e-06
-5.4365e-08
2.59585e-06
1.81391e-08
2.59186e-06
-1.64627e-08
2.59738e-06
3.91545e-08
2.59324e-06
2.19283e-08
2.59711e-06
5.13272e-08
2.59293e-06
5.81578e-08
2.59196e-06
7.6956e-08
2.58833e-06
1.08207e-07
2.58416e-06
1.36591e-07
1.74745e-07
2.58401e-06
2.71633e-06
4.36473e-07
2.70585e-06
-4.4961e-07
2.7178e-06
3.82473e-07
2.71187e-06
-1.4179e-07
2.71656e-06
-1.79592e-09
2.71504e-06
1.98333e-08
2.71791e-06
-4.37805e-08
2.71504e-06
-4.28911e-08
2.71869e-06
-4.24131e-09
2.71522e-06
-5.08983e-08
2.72008e-06
1.32873e-08
2.71612e-06
-1.25082e-08
2.72144e-06
3.38318e-08
2.718e-06
2.53695e-08
2.72097e-06
4.83635e-08
2.71766e-06
6.14632e-08
2.71571e-06
7.89113e-08
2.71276e-06
1.11151e-07
2.70877e-06
1.40579e-07
1.75025e-07
2.70849e-06
2.8463e-06
4.27441e-07
2.83489e-06
-4.38197e-07
2.84801e-06
3.69348e-07
2.84105e-06
-1.34824e-07
2.84688e-06
-7.62978e-09
2.84438e-06
2.23367e-08
2.84819e-06
-4.7589e-08
2.8446e-06
-3.9307e-08
2.84888e-06
-8.518e-09
2.84508e-06
-4.71039e-08
2.85008e-06
8.28876e-09
2.84649e-06
-8.92055e-09
2.85133e-06
2.90007e-08
2.84876e-06
2.79307e-08
2.85078e-06
4.63523e-08
2.8482e-06
6.40364e-08
2.84552e-06
8.15922e-08
2.84298e-06
1.13688e-07
2.83947e-06
1.44095e-07
1.75596e-07
2.8389e-06
2.98248e-06
4.17859e-07
2.97006e-06
-4.25774e-07
2.98446e-06
3.54944e-07
2.97637e-06
-1.26738e-07
2.98343e-06
-1.46837e-08
2.97991e-06
2.58556e-08
2.98465e-06
-5.23306e-08
2.98046e-06
-3.51168e-08
2.98516e-06
-1.32224e-08
2.98133e-06
-4.32753e-08
2.98614e-06
3.48073e-09
2.98326e-06
-6.03398e-09
2.98738e-06
2.4874e-08
2.98575e-06
2.95653e-08
2.98693e-06
4.51755e-08
2.98484e-06
6.61243e-08
2.98168e-06
8.4752e-08
2.97935e-06
1.16015e-07
2.97646e-06
1.46989e-07
1.76461e-07
2.97559e-06
3.12516e-06
4.07702e-07
3.11164e-06
-4.12252e-07
3.12743e-06
3.39153e-07
3.11815e-06
-1.17458e-07
3.12648e-06
-2.30148e-08
3.12197e-06
3.03743e-08
3.12755e-06
-5.79186e-08
3.12296e-06
-3.05221e-08
3.1278e-06
-1.80589e-08
3.12431e-06
-3.9787e-08
3.12857e-06
-7.79166e-10
3.12666e-06
-4.12567e-09
3.13e-06
2.15336e-08
3.12919e-06
3.03707e-08
3.12979e-06
4.45796e-08
3.12791e-06
6.80071e-08
3.12443e-06
8.82266e-08
3.12216e-06
1.18292e-07
3.11995e-06
1.49193e-07
1.77516e-07
3.1189e-06
3.27466e-06
3.96949e-07
3.25995e-06
-3.97538e-07
3.27724e-06
3.21863e-07
3.26672e-06
-1.06935e-07
3.27633e-06
-3.26346e-08
3.2709e-06
3.58051e-08
3.27715e-06
-6.41668e-08
3.27247e-06
-2.58418e-08
3.27703e-06
-2.26206e-08
3.27433e-06
-3.70785e-08
3.2777e-06
-4.15231e-09
3.27694e-06
-3.3645e-09
3.27956e-06
1.89088e-08
3.2794e-06
3.05331e-08
3.27973e-06
4.4248e-08
3.27786e-06
6.98801e-08
3.27403e-06
9.20504e-08
3.27154e-06
1.20791e-07
3.27021e-06
1.50514e-07
1.78738e-07
3.26899e-06
3.4313e-06
3.85583e-07
3.4153e-06
-3.8154e-07
3.43418e-06
3.0298e-07
3.42241e-06
-9.51617e-08
3.43326e-06
-4.34872e-08
3.4271e-06
4.19634e-08
3.43371e-06
-7.07706e-08
3.42938e-06
-2.15137e-08
3.43318e-06
-2.64173e-08
3.4317e-06
-3.56057e-08
3.43393e-06
-6.37357e-09
3.43433e-06
-3.77247e-09
3.43644e-06
1.68037e-08
3.43673e-06
3.02439e-08
3.43718e-06
4.37972e-08
3.43552e-06
7.15427e-08
3.43076e-06
9.68036e-08
3.42726e-06
1.24292e-07
3.42693e-06
1.50841e-07
1.80043e-07
3.42563e-06
3.5954e-06
3.73592e-07
3.57804e-06
-3.64182e-07
3.59858e-06
2.8244e-07
3.58561e-06
-8.21937e-08
3.59755e-06
-5.54271e-08
3.59097e-06
4.85483e-08
3.59751e-06
-7.73071e-08
3.59405e-06
-1.80612e-08
3.59659e-06
-2.89569e-08
3.59669e-06
-3.5701e-08
3.59771e-06
-7.39969e-09
3.59908e-06
-5.13815e-09
3.60101e-06
1.48729e-08
3.60157e-06
2.9685e-08
3.60265e-06
4.27219e-08
3.6042e-06
6.99916e-08
3.60496e-06
9.60382e-08
3.59895e-06
1.30301e-07
3.58412e-06
1.65673e-07
1.76262e-07
3.5879e-06
3.76732e-06
3.60976e-07
3.74855e-06
-3.4541e-07
3.77075e-06
2.60238e-07
3.75673e-06
-6.81725e-08
3.76951e-06
-6.82046e-08
3.76291e-06
5.5147e-08
3.76887e-06
-8.32722e-08
3.76683e-06
-1.6016e-08
3.76772e-06
-2.9846e-08
3.76946e-06
-3.7443e-08
3.7696e-06
-7.53581e-09
3.77142e-06
-6.95919e-09
3.77377e-06
1.25215e-08
3.77464e-06
2.88159e-08
3.77675e-06
4.0612e-08
3.78245e-06
6.42915e-08
3.78854e-06
8.99472e-08
3.7973e-06
1.21539e-07
3.81053e-06
1.5244e-07
1.98658e-07
3.78814e-06
3.94742e-06
3.47745e-07
3.92723e-06
-3.25216e-07
3.95101e-06
2.36456e-07
3.93619e-06
-5.33566e-08
3.94943e-06
-8.14425e-08
3.94336e-06
6.12203e-08
3.94818e-06
-8.81008e-08
3.94802e-06
-1.58522e-08
3.94706e-06
-2.88819e-08
3.95024e-06
-4.06273e-08
3.95003e-06
-7.32507e-09
3.95174e-06
-8.67385e-09
3.9551e-06
9.16739e-09
3.95755e-06
2.63601e-08
3.95956e-06
3.86074e-08
3.95362e-06
7.02307e-08
3.94313e-06
1.00434e-07
3.93682e-06
1.27847e-07
3.92858e-06
1.60689e-07
1.91162e-07
3.93607e-06
4.13607e-06
3.33926e-07
4.1145e-06
-3.03651e-07
4.13967e-06
2.11293e-07
4.12444e-06
-3.81306e-08
4.13766e-06
-9.46634e-08
4.13271e-06
6.6169e-08
4.13589e-06
-9.12755e-08
4.13788e-06
-1.78465e-08
4.13519e-06
-2.61875e-08
4.13925e-06
-4.4694e-08
4.13947e-06
-7.54386e-09
4.14066e-06
-9.85734e-09
4.1433e-06
6.52654e-09
4.13885e-06
3.08063e-08
4.1309e-06
4.65604e-08
4.12851e-06
7.26192e-08
4.12571e-06
1.03234e-07
4.12111e-06
1.32445e-07
4.11876e-06
1.63037e-07
1.86508e-07
4.12342e-06
4.33367e-06
3.19563e-07
4.31085e-06
-2.80837e-07
4.33706e-06
1.85086e-07
4.32194e-06
-2.3014e-08
4.33459e-06
-1.07312e-07
4.33138e-06
6.93848e-08
4.33251e-06
-9.24148e-08
4.33666e-06
-2.19875e-08
4.33268e-06
-2.22113e-08
4.33687e-06
-4.88829e-08
4.33755e-06
-8.22253e-09
4.33447e-06
-6.77807e-09
4.33251e-06
8.48798e-09
4.32813e-06
3.51853e-08
4.32327e-06
5.1413e-08
4.32065e-06
7.52453e-08
4.31827e-06
1.0561e-07
4.31552e-06
1.35199e-07
4.3159e-06
1.6266e-07
1.8278e-07
4.31962e-06
4.54062e-06
3.04719e-07
4.51677e-06
-2.56993e-07
4.54352e-06
1.58343e-07
4.52916e-06
-8.6634e-09
4.54064e-06
-1.18789e-07
4.53972e-06
7.03105e-08
4.53865e-06
-9.13458e-08
4.54462e-06
-2.796e-08
4.53995e-06
-1.75399e-08
4.54265e-06
-5.15873e-08
4.5417e-06
-7.27318e-09
4.53516e-06
-2.33848e-10
4.5336e-06
1.00468e-08
4.53005e-06
3.87383e-08
4.52519e-06
5.62688e-08
4.52253e-06
7.79108e-08
4.52079e-06
1.07351e-07
4.51932e-06
1.36664e-07
4.52138e-06
1.60603e-07
1.80124e-07
4.52403e-06
4.75735e-06
2.8948e-07
4.73279e-06
-2.32426e-07
4.75941e-06
1.31725e-07
4.74654e-06
4.1985e-09
4.75633e-06
-1.28576e-07
4.75803e-06
6.86111e-08
4.75493e-06
-8.82491e-08
4.76205e-06
-3.50817e-08
4.75687e-06
-1.23505e-08
4.75586e-06
-5.05832e-08
4.75398e-06
-5.39613e-09
4.74672e-06
7.03407e-09
4.74471e-06
1.20559e-08
4.74222e-06
4.12284e-08
4.73737e-06
6.11207e-08
4.7345e-06
8.07777e-08
4.73331e-06
1.08538e-07
4.73312e-06
1.36856e-07
4.73506e-06
1.58666e-07
1.7741e-07
4.73777e-06
4.98433e-06
2.7395e-07
4.95944e-06
-2.07535e-07
4.98514e-06
1.06024e-07
4.9745e-06
1.48361e-08
4.98223e-06
-1.36307e-07
4.98661e-06
6.42285e-08
4.98191e-06
-8.35498e-08
4.98907e-06
-4.22351e-08
4.98251e-06
-5.79068e-09
4.97792e-06
-4.59926e-08
4.97648e-06
-3.95444e-09
4.96906e-06
1.44498e-08
4.96633e-06
1.47903e-08
4.96474e-06
4.28183e-08
4.96023e-06
6.56264e-08
4.95705e-06
8.39561e-08
4.95631e-06
1.09283e-07
4.95721e-06
1.35957e-07
4.95872e-06
1.57153e-07
1.74348e-07
4.96178e-06
5.22202e-06
2.58246e-07
5.19727e-06
-1.82786e-07
5.2212e-06
8.20948e-08
5.21338e-06
2.26516e-08
5.21898e-06
-1.41906e-07
5.22587e-06
5.73461e-08
5.21989e-06
-7.75739e-08
5.2258e-06
-4.81494e-08
5.21692e-06
3.09756e-09
5.21038e-06
-3.94553e-08
5.20967e-06
-3.24313e-09
5.20271e-06
2.14059e-08
5.19896e-06
1.85439e-08
5.19797e-06
4.38017e-08
5.19415e-06
6.94545e-08
5.19071e-06
8.73974e-08
5.19034e-06
1.09645e-07
5.19186e-06
1.34445e-07
5.1935e-06
1.5551e-07
1.71094e-07
5.19675e-06
5.47095e-06
2.4249e-07
5.44683e-06
-1.5867e-07
5.46826e-06
6.06684e-08
5.46342e-06
2.74843e-08
5.46729e-06
-1.45773e-07
5.47619e-06
4.84439e-08
5.46923e-06
-7.06089e-08
5.47166e-06
-5.05854e-08
5.46214e-06
1.26248e-08
5.45418e-06
-3.14985e-08
5.45414e-06
-3.20676e-09
5.44806e-06
2.74936e-08
5.44317e-06
2.34353e-08
5.44244e-06
4.45295e-08
5.4395e-06
7.23888e-08
5.43601e-06
9.08877e-08
5.43589e-06
1.09769e-07
5.43769e-06
1.32642e-07
5.4398e-06
1.53399e-07
1.67654e-07
5.44324e-06
5.73165e-06
2.26797e-07
5.70866e-06
-1.35679e-07
5.7271e-06
4.22283e-08
5.72482e-06
2.97623e-08
5.72749e-06
-1.48437e-07
5.73684e-06
3.90854e-08
5.72641e-06
-6.01707e-08
5.72718e-06
-5.13603e-08
5.7191e-06
2.07037e-08
5.71019e-06
-2.25846e-08
5.71037e-06
-3.3921e-09
5.70545e-06
3.24195e-08
5.69958e-06
2.93005e-08
5.69869e-06
4.54234e-08
5.69674e-06
7.43357e-08
5.69352e-06
9.41062e-08
5.69344e-06
1.09852e-07
5.6954e-06
1.30685e-07
5.69807e-06
1.50721e-07
1.63957e-07
5.70177e-06
6.00472e-06
2.11269e-07
5.98333e-06
-1.14287e-07
5.99859e-06
2.69624e-08
5.99772e-06
3.06371e-08
5.99787e-06
-1.48584e-07
6.00499e-06
3.19643e-08
5.99367e-06
-4.88562e-08
5.99485e-06
-5.2539e-08
5.98889e-06
2.66693e-08
5.97893e-06
-1.26286e-08
5.9789e-06
-3.36346e-09
5.97528e-06
3.60393e-08
5.96882e-06
3.57583e-08
5.96737e-06
4.68807e-08
5.96634e-06
7.53664e-08
5.96376e-06
9.66838e-08
5.96357e-06
1.1004e-07
5.96561e-06
1.28645e-07
5.96884e-06
1.47493e-07
1.59929e-07
5.97287e-06
6.29077e-06
1.95985e-07
6.27134e-06
-9.48514e-08
6.28363e-06
1.46724e-08
6.28245e-06
3.18155e-08
6.27983e-06
-1.45963e-07
6.28733e-06
2.4464e-08
6.27563e-06
-3.71583e-08
6.2758e-06
-5.27049e-08
6.27182e-06
3.06454e-08
6.26106e-06
-1.86604e-09
6.26035e-06
-2.65245e-09
6.25804e-06
3.83463e-08
6.25147e-06
4.23297e-08
6.24919e-06
4.91547e-08
6.24884e-06
7.57207e-08
6.24723e-06
9.82945e-08
6.24689e-06
1.10379e-07
6.24897e-06
1.26571e-07
6.25266e-06
1.43799e-07
1.55521e-07
6.25707e-06
6.59045e-06
1.81001e-07
6.57315e-06
-7.75476e-08
6.58289e-06
4.93311e-09
6.58051e-06
3.41927e-08
6.57606e-06
-1.41515e-07
6.58399e-06
1.65388e-08
6.57201e-06
-2.51754e-08
6.57045e-06
-5.11527e-08
6.56831e-06
3.27846e-08
6.55725e-06
9.20294e-09
6.55538e-06
-7.83182e-10
6.55425e-06
3.9472e-08
6.54806e-06
4.85195e-08
6.54492e-06
5.22954e-08
6.54491e-06
7.57303e-08
6.54442e-06
9.87886e-08
6.54406e-06
1.10738e-07
6.54612e-06
1.24507e-07
6.55016e-06
1.39762e-07
1.50715e-07
6.55496e-06
6.90444e-06
1.66354e-07
6.88918e-06
-6.22924e-08
6.89702e-06
-2.90484e-09
6.89342e-06
3.77972e-08
6.88685e-06
-1.34949e-07
6.89504e-06
8.34651e-09
6.88306e-06
-1.3193e-08
6.87947e-06
-4.75642e-08
6.87891e-06
3.33496e-08
6.86812e-06
1.99875e-08
6.86477e-06
2.56918e-09
6.86451e-06
3.97317e-08
6.85913e-06
5.38946e-08
6.85528e-06
5.61502e-08
6.85529e-06
7.57163e-08
6.85583e-06
9.82499e-08
6.85572e-06
1.10852e-07
6.85776e-06
1.22468e-07
6.862e-06
1.35517e-07
1.45535e-07
6.86718e-06
7.23343e-06
1.52064e-07
7.21993e-06
-4.87978e-08
7.22666e-06
-9.63005e-09
7.2219e-06
4.25565e-08
7.21312e-06
-1.26175e-07
7.22107e-06
4.00512e-10
7.20933e-06
-1.45355e-09
7.20358e-06
-4.18149e-08
7.20422e-06
3.27126e-08
7.19428e-06
2.9926e-08
7.18935e-06
7.4951e-09
7.18951e-06
3.95722e-08
7.18523e-06
5.81788e-08
7.18098e-06
6.03969e-08
7.1808e-06
7.58987e-08
7.1821e-06
9.69447e-08
7.18251e-06
1.1045e-07
7.18457e-06
1.20406e-07
7.18891e-06
1.3118e-07
1.40046e-07
7.1944e-06
7.57815e-06
1.38139e-07
7.56618e-06
-3.68298e-08
7.57225e-06
-1.56963e-08
7.56682e-06
4.79872e-08
7.55591e-06
-1.15264e-07
7.56273e-06
-6.42427e-09
7.55139e-06
9.8854e-09
7.54362e-06
-3.40395e-08
7.54494e-06
3.13878e-08
7.5363e-06
3.85721e-08
7.52998e-06
1.38146e-08
7.53004e-06
3.95072e-08
7.52693e-06
6.12917e-08
7.52269e-06
6.46386e-08
7.52223e-06
7.63597e-08
7.52398e-06
9.51883e-08
7.52507e-06
1.09363e-07
7.52727e-06
1.18207e-07
7.53163e-06
1.26821e-07
1.3434e-07
7.53733e-06
7.93937e-06
1.24579e-07
7.92873e-06
-2.619e-08
7.93421e-06
-2.1177e-08
7.92948e-06
5.27209e-08
7.9163e-06
-1.02088e-07
7.92062e-06
-1.07371e-08
7.90992e-06
2.05846e-08
7.90043e-06
-2.45495e-08
7.90188e-06
2.99294e-08
7.89478e-06
4.56757e-08
7.88744e-06
2.11532e-08
7.88697e-06
3.99787e-08
7.88491e-06
6.33528e-08
7.88104e-06
6.85046e-08
7.88036e-06
7.70475e-08
7.88229e-06
9.32507e-08
7.88409e-06
1.07562e-07
7.88656e-06
1.15737e-07
7.89093e-06
1.22456e-07
1.28505e-07
7.89676e-06
8.31786e-06
1.11399e-07
8.30863e-06
-1.69576e-08
8.31616e-06
-2.87121e-08
8.31287e-06
5.60161e-08
8.29531e-06
-8.45339e-08
8.29536e-06
-1.07823e-08
8.28564e-06
3.03082e-08
8.2749e-06
-1.38101e-08
8.27591e-06
2.89203e-08
8.27038e-06
5.12024e-08
8.2625e-06
2.90341e-08
8.26122e-06
4.1261e-08
8.25995e-06
6.46146e-08
8.25673e-06
7.17322e-08
8.25597e-06
7.78018e-08
8.25791e-06
9.1314e-08
8.26035e-06
1.05124e-07
8.26319e-06
1.1289e-07
8.26759e-06
1.18058e-07
1.22611e-07
8.27349e-06
8.71445e-06
9.86142e-08
8.70824e-06
-1.07478e-08
8.72087e-06
-4.13414e-08
8.7229e-06
5.39801e-08
8.69288e-06
-5.45105e-08
8.68772e-06
-5.62014e-09
8.67949e-06
3.8537e-08
8.66794e-06
-2.25918e-09
8.6679e-06
2.89615e-08
8.6638e-06
5.52957e-08
8.65588e-06
3.69557e-08
8.65367e-06
4.34677e-08
8.65293e-06
6.53576e-08
8.65046e-06
7.42073e-08
8.64984e-06
7.84149e-08
8.6517e-06
8.94605e-08
8.65466e-06
1.02165e-07
8.65794e-06
1.09601e-07
8.66243e-06
1.13571e-07
1.16709e-07
8.66833e-06
9.1299e-06
8.63336e-08
9.1342e-06
-1.50479e-08
9.14893e-06
-5.60749e-08
9.139e-06
6.39096e-08
9.106e-06
-2.15102e-08
9.0992e-06
1.18642e-09
9.09257e-06
4.5166e-08
9.08044e-06
9.86936e-09
9.07886e-06
3.05394e-08
9.0759e-06
5.82559e-08
9.06839e-06
4.44645e-08
9.06533e-06
4.65285e-08
9.06484e-06
6.5854e-08
9.06311e-06
7.59297e-08
9.06276e-06
7.87639e-08
9.06457e-06
8.76562e-08
9.06793e-06
9.88026e-08
9.07167e-06
1.05861e-07
9.07631e-06
1.08936e-07
1.10826e-07
9.08219e-06
9.56491e-06
7.48791e-08
9.56251e-06
-1.26474e-08
9.55532e-06
-4.88841e-08
9.55523e-06
6.40023e-08
9.53713e-06
-3.40852e-09
9.53111e-06
7.20282e-09
9.5257e-06
5.05748e-08
9.51317e-06
2.2405e-08
9.50986e-06
3.38519e-08
9.5076e-06
6.05118e-08
9.50084e-06
5.12263e-08
9.49719e-06
5.01761e-08
9.49673e-06
6.63188e-08
9.49572e-06
7.69342e-08
9.49562e-06
7.88659e-08
9.49753e-06
8.57443e-08
9.5012e-06
9.51361e-08
9.50537e-06
1.01685e-07
9.51021e-06
1.04102e-07
1.04934e-07
9.5161e-06
1.00205e-05
6.4552e-08
9.99874e-06
9.07835e-09
9.99526e-06
-4.54041e-08
1.00054e-05
5.38908e-08
9.9903e-06
1.16642e-08
9.98364e-06
1.38589e-08
9.9794e-06
5.48142e-08
9.9671e-06
3.47017e-08
9.96192e-06
3.90377e-08
9.95985e-06
6.2577e-08
9.95398e-06
5.71004e-08
9.95006e-06
5.40915e-08
9.94951e-06
6.68724e-08
9.94906e-06
7.73792e-08
9.94925e-06
7.86772e-08
9.95137e-06
8.363e-08
9.95529e-06
9.12144e-08
9.95988e-06
9.70955e-08
9.96495e-06
9.90285e-08
9.89752e-08
9.97091e-06
1.04978e-05
5.53766e-08
1.04703e-05
3.65914e-08
1.04718e-05
-4.68843e-08
1.04824e-05
4.32977e-08
1.04655e-05
2.85554e-08
1.04574e-05
2.19687e-08
1.04544e-05
5.77415e-08
1.04429e-05
4.62316e-08
1.0436e-05
4.59078e-08
1.04336e-05
6.50102e-08
1.04287e-05
6.20342e-08
1.04248e-05
5.80026e-08
1.04241e-05
6.75814e-08
1.04241e-05
7.73711e-08
1.04246e-05
7.81642e-08
1.04269e-05
8.13114e-08
1.04311e-05
8.70557e-08
1.04361e-05
9.21006e-08
1.04414e-05
9.36543e-08
9.29469e-08
1.04475e-05
1.09995e-05
4.58894e-08
1.10218e-05
1.42783e-08
1.10086e-05
-3.3674e-08
1.0985e-05
6.69161e-08
1.09628e-05
5.07761e-08
1.09539e-05
3.08848e-08
1.09518e-05
5.97447e-08
1.09416e-05
5.65308e-08
1.09334e-05
5.40536e-08
1.09302e-05
6.82611e-08
1.09259e-05
6.62412e-08
1.09222e-05
6.17177e-08
1.09214e-05
6.84179e-08
1.09217e-05
7.70395e-08
1.09225e-05
7.73572e-08
1.0925e-05
7.88406e-08
1.09294e-05
8.26776e-08
1.09348e-05
8.67201e-08
1.09405e-05
8.79324e-08
8.6832e-08
1.09466e-05
1.15222e-05
3.90592e-08
1.15001e-05
3.64153e-08
1.14969e-05
-3.04849e-08
1.15048e-05
5.9032e-08
1.14879e-05
6.75994e-08
1.14755e-05
4.33537e-08
1.14727e-05
6.25372e-08
1.14639e-05
6.53261e-08
1.1455e-05
6.29368e-08
1.14507e-05
7.25075e-08
1.14469e-05
7.00407e-08
1.14436e-05
6.50919e-08
1.14428e-05
6.91751e-08
1.14436e-05
7.62636e-08
1.14445e-05
7.64164e-08
1.14472e-05
7.61738e-08
1.14518e-05
7.80516e-08
1.14576e-05
8.09634e-08
1.14637e-05
8.18536e-08
8.04967e-08
1.147e-05
1.20719e-05
3.30273e-08
1.20575e-05
5.07224e-08
1.20419e-05
-1.48834e-08
1.20494e-05
5.16231e-08
1.20374e-05
7.95076e-08
1.20227e-05
5.80798e-08
1.20183e-05
6.69558e-08
1.20109e-05
7.27401e-08
1.20019e-05
7.19167e-08
1.19967e-05
7.77638e-08
1.19928e-05
7.38954e-08
1.19898e-05
6.81214e-08
1.19892e-05
6.97799e-08
1.19904e-05
7.50624e-08
1.19915e-05
7.52967e-08
1.19942e-05
7.34436e-08
1.19991e-05
7.31742e-08
1.20052e-05
7.48787e-08
1.20116e-05
7.54075e-08
7.38814e-08
1.20182e-05
1.26471e-05
2.8511e-08
1.26322e-05
6.56658e-08
1.26182e-05
-8.92482e-10
1.26221e-05
4.77411e-08
1.26123e-05
8.92852e-08
1.25965e-05
7.38121e-08
1.25901e-05
7.34187e-08
1.25835e-05
7.93046e-08
1.25749e-05
8.05501e-08
1.25688e-05
8.38794e-08
1.25645e-05
7.81405e-08
1.25618e-05
7.08523e-08
1.25614e-05
7.01301e-08
1.25629e-05
7.3642e-08
1.25646e-05
7.35809e-08
1.25673e-05
7.07266e-08
1.25724e-05
6.80949e-08
1.25787e-05
6.85288e-08
1.25856e-05
6.8575e-08
6.69789e-08
1.25925e-05
1.32502e-05
2.52118e-08
1.32487e-05
6.71495e-08
1.32296e-05
1.83e-08
1.32231e-05
5.42418e-08
1.32138e-05
9.8507e-08
1.3198e-05
8.96794e-08
1.31894e-05
8.19636e-08
1.31832e-05
8.55686e-08
1.31752e-05
8.85573e-08
1.31685e-05
9.05627e-08
1.31637e-05
8.29563e-08
1.3161e-05
7.3528e-08
1.31608e-05
7.03007e-08
1.31624e-05
7.20021e-08
1.31648e-05
7.12741e-08
1.31677e-05
6.77338e-08
1.31729e-05
6.29748e-08
1.31794e-05
6.20324e-08
1.31866e-05
6.13787e-08
5.97281e-08
1.31938e-05
1.38823e-05
2.31216e-08
1.38856e-05
6.37639e-08
1.38636e-05
4.02913e-08
1.3853e-05
6.4932e-08
1.38443e-05
1.07135e-07
1.38285e-05
1.05544e-07
1.38178e-05
9.2655e-08
1.38112e-05
9.21599e-08
1.38039e-05
9.58898e-08
1.37969e-05
9.7475e-08
1.37916e-05
8.83449e-08
1.37886e-05
7.64364e-08
1.37885e-05
7.04419e-08
1.37904e-05
7.00966e-08
1.37932e-05
6.84445e-08
1.37968e-05
6.41627e-08
1.38019e-05
5.78454e-08
1.38084e-05
5.55206e-08
1.3816e-05
5.38317e-08
5.20396e-08
1.38237e-05
1.45442e-05
2.25536e-08
1.45293e-05
7.86973e-08
1.45168e-05
5.27941e-08
1.45132e-05
6.84931e-08
1.45052e-05
1.15131e-07
1.44893e-05
1.21478e-07
1.44766e-05
1.05395e-07
1.44691e-05
9.96652e-08
1.44623e-05
1.02679e-07
1.44554e-05
1.04325e-07
1.44496e-05
9.42025e-08
1.44462e-05
7.97933e-08
1.44459e-05
7.07244e-08
1.4448e-05
6.79936e-08
1.44514e-05
6.50975e-08
1.44556e-05
5.98967e-08
1.44609e-05
5.25792e-08
1.44674e-05
4.90302e-08
1.44753e-05
4.59672e-08
4.38394e-08
1.44835e-05
1.52385e-05
2.28956e-08
1.52311e-05
8.61858e-08
1.52127e-05
7.11112e-08
1.52042e-05
7.70493e-08
1.51972e-05
1.22158e-07
1.51816e-05
1.37073e-07
1.51671e-05
1.19874e-07
1.51582e-05
1.08562e-07
1.51516e-05
1.0926e-07
1.5145e-05
1.10941e-07
1.51388e-05
1.00422e-07
1.51348e-05
8.37482e-08
1.51342e-05
7.13366e-08
1.51364e-05
6.58007e-08
1.51402e-05
6.12631e-08
1.51452e-05
5.49654e-08
1.51506e-05
4.71318e-08
1.51575e-05
4.21084e-08
1.51654e-05
3.80688e-08
3.49367e-08
1.51743e-05
1.5966e-05
2.4215e-08
1.59655e-05
8.66526e-08
1.59411e-05
9.55737e-08
1.59292e-05
8.88911e-08
1.59217e-05
1.2973e-07
1.59067e-05
1.52075e-07
1.58909e-05
1.35632e-07
1.58803e-05
1.19144e-07
1.58733e-05
1.16287e-07
1.58669e-05
1.17316e-07
1.58606e-05
1.06775e-07
1.58559e-05
8.84035e-08
1.58548e-05
7.24573e-08
1.5857e-05
6.36292e-08
1.58612e-05
5.70304e-08
1.58666e-05
4.95927e-08
1.58725e-05
4.12229e-08
1.58801e-05
3.45237e-08
1.58883e-05
2.98378e-08
2.5843e-08
1.58974e-05
1.67273e-05
2.75576e-08
1.67029e-05
1.11039e-07
1.66988e-05
9.96207e-08
1.66904e-05
9.73297e-08
1.668e-05
1.40092e-07
1.66658e-05
1.66313e-07
1.66493e-05
1.5211e-07
1.6637e-05
1.31474e-07
1.6629e-05
1.24275e-07
1.66226e-05
1.23744e-07
1.66163e-05
1.13046e-07
1.6611e-05
9.36819e-08
1.66092e-05
7.42814e-08
1.66112e-05
6.16685e-08
1.66156e-05
5.2596e-08
1.66213e-05
4.38453e-08
1.6628e-05
3.45585e-08
1.6636e-05
2.65342e-08
1.66452e-05
2.06135e-08
1.68247e-08
1.66542e-05
1.75283e-05
2.9624e-08
1.756e-05
7.93291e-08
1.75243e-05
1.35344e-07
1.74869e-05
1.34717e-07
1.74736e-05
1.53388e-07
1.74608e-05
1.79136e-07
1.7444e-05
1.68852e-07
1.74299e-05
1.45586e-07
1.74204e-05
1.33797e-07
1.74134e-05
1.30752e-07
1.74069e-05
1.19521e-07
1.74012e-05
9.93716e-08
1.73985e-05
7.6997e-08
1.73999e-05
6.02387e-08
1.74044e-05
4.81338e-08
1.74106e-05
3.76226e-08
1.7418e-05
2.71497e-08
1.74266e-05
1.79282e-08
1.74364e-05
1.08812e-08
6.55757e-09
1.74466e-05
1.8363e-05
3.49612e-08
1.83365e-05
1.05847e-07
1.83358e-05
1.36007e-07
1.83215e-05
1.4906e-07
1.83071e-05
1.67736e-07
1.82937e-05
1.92598e-07
1.82768e-05
1.85727e-07
1.82609e-05
1.61452e-07
1.82495e-05
1.45203e-07
1.82414e-05
1.38848e-07
1.82344e-05
1.26544e-07
1.82286e-05
1.05188e-07
1.82249e-05
8.06663e-08
1.82255e-05
5.9618e-08
1.82298e-05
4.38545e-08
1.82365e-05
3.09494e-08
1.82447e-05
1.8926e-08
1.82541e-05
8.50649e-09
1.82648e-05
2.24568e-10
-4.83518e-09
1.82762e-05
1.92418e-05
3.9505e-08
1.9244e-05
1.03698e-07
1.92133e-05
1.66729e-07
1.9195e-05
1.67287e-07
1.91795e-05
1.83258e-07
1.9166e-05
2.06149e-07
1.91492e-05
2.0252e-07
1.91316e-05
1.78999e-07
1.91179e-05
1.58916e-07
1.91081e-05
1.48621e-07