/*--------------------------------*- C++ -*----------------------------------*\
| =========                 |                                                 |
| \\      /  F ield         | OpenFOAM: The Open Source CFD Toolbox           |
|  \\    /   O peration     | Version:  v2012                                 |
|   \\  /    A nd           | Website:  www.openfoam.com                      |
|    \\/     M anipulation  |                                                 |
\*---------------------------------------------------------------------------*/
FoamFile
{
    version     2.0;
    format      ascii;
    class       surfaceScalarField;
    location    "2.45";
    object      phi;
}
// * * * * * * * * * * * * * * * * * * * * * * * * * * * * * * * * * * * * * //

dimensions      [0 3 -1 0 0 0 0];
oriented        oriented;


internalField   nonuniform List<scalar> 
34900
(
1.17614e-06
-1.0637e-07
1.16667e-06
-6.80381e-08
1.17589e-06
2.57768e-08
1.17275e-06
5.95959e-08
1.17838e-06
1.69774e-07
1.17191e-06
5.70094e-08
1.17379e-06
9.01025e-08
1.16521e-06
-3.32978e-08
1.16784e-06
8.87903e-08
1.15754e-06
-1.00986e-07
1.16352e-06
1.61025e-07
1.14899e-06
-1.52407e-07
1.15874e-06
1.95595e-07
1.13968e-06
-1.37986e-07
1.15133e-06
1.53813e-07
1.13002e-06
-8.38215e-08
1.1422e-06
1.12118e-07
1.11885e-06
-5.24538e-08
1.12804e-06
9.44587e-08
-2.93364e-08
1.08035e-06
1.23194e-06
-1.14053e-07
1.22349e-06
-5.95842e-08
1.23177e-06
1.75016e-08
1.23117e-06
6.01902e-08
1.23389e-06
1.67058e-07
1.23041e-06
6.04903e-08
1.22907e-06
9.14388e-08
1.22371e-06
-2.7942e-08
1.22209e-06
9.04179e-08
1.21581e-06
-9.47105e-08
1.21569e-06
1.61148e-07
1.20737e-06
-1.44088e-07
1.20792e-06
1.95049e-07
1.19995e-06
-1.30024e-07
1.19757e-06
1.56195e-07
1.19471e-06
-8.09603e-08
1.18574e-06
1.21087e-07
1.18928e-06
-5.59917e-08
1.1679e-06
1.15841e-07
-2.70421e-08
1.1656e-06
1.2889e-06
-1.20175e-07
1.28488e-06
-5.55616e-08
1.2895e-06
1.28799e-08
1.29344e-06
5.62496e-08
1.29169e-06
1.68815e-07
1.29322e-06
5.89612e-08
1.28714e-06
9.75165e-08
1.28648e-06
-2.72817e-08
1.27967e-06
9.72293e-08
1.27822e-06
-9.32575e-08
1.2729e-06
1.6646e-07
1.27006e-06
-1.41245e-07
1.26577e-06
1.99343e-07
1.26397e-06
-1.28227e-07
1.25813e-06
1.62038e-07
1.25912e-06
-8.19537e-08
1.25207e-06
1.28139e-07
1.25191e-06
-5.5836e-08
1.24375e-06
1.24007e-07
-9.68424e-09
1.22639e-06
1.34749e-06
-1.2356e-07
1.34883e-06
-5.69053e-08
1.34892e-06
1.27885e-08
1.35727e-06
4.79067e-08
1.35194e-06
1.74144e-07
1.35754e-06
5.33571e-08
1.34861e-06
1.0645e-07
1.35072e-06
-2.9392e-08
1.34181e-06
1.06138e-07
1.34205e-06
-9.34985e-08
1.33638e-06
1.7213e-07
1.33454e-06
-1.39402e-07
1.33181e-06
2.02066e-07
1.32972e-06
-1.26133e-07
1.32761e-06
1.64146e-07
1.3254e-06
-7.97447e-08
1.32451e-06
1.29034e-07
1.31855e-06
-4.98834e-08
1.31742e-06
1.2514e-07
1.15181e-08
1.29622e-06
1.40866e-06
-1.23864e-07
1.41401e-06
-6.22582e-08
1.41036e-06
1.64374e-08
1.42087e-06
3.73958e-08
1.41477e-06
1.80244e-07
1.42188e-06
4.62527e-08
1.41357e-06
1.14758e-07
1.41564e-06
-3.14677e-08
1.40817e-06
1.13617e-07
1.40736e-06
-9.26928e-08
1.40418e-06
1.75314e-07
1.40111e-06
-1.36331e-07
1.40139e-06
2.01783e-07
1.39761e-06
-1.22354e-07
1.39871e-06
1.63042e-07
1.39407e-06
-7.50966e-08
1.39596e-06
1.27143e-07
1.38747e-06
-4.13936e-08
1.3885e-06
1.24109e-07
3.29016e-08
1.36711e-06
1.47364e-06
-1.21829e-07
1.48033e-06
-6.89505e-08
1.47479e-06
2.1983e-08
1.48465e-06
2.75385e-08
1.48046e-06
1.84428e-07
1.48694e-06
3.97784e-08
1.48161e-06
1.20079e-07
1.48238e-06
-3.2233e-08
1.47762e-06
1.1838e-07
1.47531e-06
-9.03871e-08
1.47447e-06
1.76154e-07
1.47034e-06
-1.322e-07
1.47254e-06
1.99589e-07
1.46769e-06
-1.17513e-07
1.47054e-06
1.60195e-07
1.46456e-06
-6.91143e-08
1.46792e-06
1.23778e-07
1.4578e-06
-3.12697e-08
1.4604e-06
1.21506e-07
5.4106e-08
1.4392e-06
1.54321e-06
-1.18822e-07
1.54885e-06
-7.45909e-08
1.54318e-06
2.76513e-08
1.55054e-06
2.01753e-08
1.54931e-06
1.85665e-07
1.55446e-06
3.46272e-08
1.55241e-06
1.22129e-07
1.55219e-06
-3.20136e-08
1.54967e-06
1.20895e-07
1.5466e-06
-8.73136e-08
1.54717e-06
1.75583e-07
1.54257e-06
-1.276e-07
1.54588e-06
1.96283e-07
1.54038e-06
-1.12019e-07
1.54448e-06
1.56095e-07
1.53745e-06
-6.20791e-08
1.54215e-06
1.19072e-07
1.53056e-06
-1.96771e-08
1.53448e-06
1.17583e-07
7.46127e-08
1.51398e-06
1.61734e-06
-1.16029e-07
1.62083e-06
-7.80854e-08
1.61602e-06
3.24584e-08
1.62058e-06
1.56215e-08
1.62173e-06
1.84508e-07
1.62587e-06
3.04916e-08
1.62617e-06
1.21829e-07
1.62575e-06
-3.15944e-08
1.6247e-06
1.21949e-07
1.62154e-06
-8.41535e-08
1.62299e-06
1.74128e-07
1.6182e-06
-1.22806e-07
1.6224e-06
1.92084e-07
1.61631e-06
-1.05937e-07
1.6216e-06
1.50811e-07
1.61352e-06
-5.40056e-08
1.61951e-06
1.13082e-07
1.60666e-06
-6.82267e-09
1.61144e-06
1.128e-07
9.37759e-08
1.59228e-06
1.6955e-06
-1.13957e-07
1.69704e-06
-7.96277e-08
1.69333e-06
3.61759e-08
1.69582e-06
1.31325e-08
1.69825e-06
1.8207e-07
1.70185e-06
2.6897e-08
1.70345e-06
1.20225e-07
1.70331e-06
-3.1451e-08
1.70322e-06
1.22034e-07
1.70028e-06
-8.12141e-08
1.70248e-06
1.71929e-07
1.69753e-06
-1.17857e-07
1.70263e-06
1.86988e-07
1.69589e-06
-9.9193e-08
1.70237e-06
1.44332e-07
1.69322e-06
-4.48611e-08
1.70035e-06
1.05952e-07
1.68654e-06
6.99101e-09
1.69162e-06
1.07717e-07
1.11006e-07
1.67439e-06
1.77726e-06
-1.12492e-07
1.77766e-06
-8.0035e-08
1.77491e-06
3.89262e-08
1.77636e-06
1.16827e-08
1.77923e-06
1.79205e-07
1.78252e-06
2.36073e-08
1.78471e-06
1.18038e-07
1.78492e-06
-3.16616e-08
1.78557e-06
1.21385e-07
1.78289e-06
-7.85402e-08
1.78583e-06
1.68986e-07
1.78067e-06
-1.12689e-07
1.78672e-06
1.80936e-07
1.77919e-06
-9.1668e-08
1.78687e-06
1.36654e-07
1.77665e-06
-3.46408e-08
1.78467e-06
9.79376e-08
1.77031e-06
2.13488e-08
1.77507e-06
1.02959e-07
1.25802e-07
1.76027e-06
1.86253e-06
-1.11272e-07
1.86258e-06
-8.00841e-08
1.86062e-06
4.08883e-08
1.86182e-06
1.04736e-08
1.86472e-06
1.76306e-07
1.86774e-06
2.05887e-08
1.87012e-06
1.15657e-07
1.87056e-06
-3.20943e-08
1.87181e-06
1.20125e-07
1.86932e-06
-7.60415e-08
1.87303e-06
1.65271e-07
1.86754e-06
-1.07193e-07
1.8746e-06
1.7387e-07
1.86619e-06
-8.32597e-08
1.87502e-06
1.27823e-07
1.86381e-06
-2.34307e-08
1.87234e-06
8.94087e-08
1.85796e-06
3.57318e-08
1.86175e-06
9.91719e-08
1.37796e-07
1.84975e-06
1.95156e-06
-1.09995e-07
1.9517e-06
-8.02224e-08
1.95037e-06
4.22234e-08
1.95178e-06
9.06289e-09
1.95463e-06
1.73452e-07
1.95736e-06
1.78591e-08
1.95977e-06
1.1325e-07
1.96024e-06
-3.25687e-08
1.96204e-06
1.18329e-07
1.95956e-06
-7.35642e-08
1.96408e-06
1.60754e-07
1.95812e-06
-1.01239e-07
1.96624e-06
1.65757e-07
1.9569e-06
-7.39227e-08
1.96675e-06
1.1797e-07
1.95477e-06
-1.14453e-08
1.96334e-06
8.08386e-08
1.9495e-06
4.95643e-08
1.95176e-06
9.692e-08
1.46823e-07
1.94273e-06
2.04471e-06
-1.08519e-07
2.04509e-06
-8.0604e-08
2.04423e-06
4.3089e-08
2.04601e-06
7.2837e-09
2.04887e-06
1.70592e-07
2.05132e-06
1.54116e-08
2.05372e-06
1.10844e-07
2.05408e-06
-3.29296e-08
2.05638e-06
1.1603e-07
2.05375e-06
-7.09343e-08
2.0591e-06
1.55408e-07
2.05256e-06
-9.47049e-08
2.06172e-06
1.566e-07
2.05149e-06
-6.36913e-08
2.06214e-06
1.0732e-07
2.04973e-06
9.67169e-10
2.0578e-06
7.27704e-08
2.04508e-06
6.22844e-08
2.04543e-06
9.65646e-08
1.52994e-07
2.03926e-06
2.14231e-06
-1.06824e-07
2.14293e-06
-8.12317e-08
2.14238e-06
4.36391e-08
2.14454e-06
5.12463e-09
2.14749e-06
1.67645e-07
2.14969e-06
1.32149e-08
2.15214e-06
1.08387e-07
2.15228e-06
-3.30619e-08
2.15508e-06
1.13223e-07
2.15214e-06
-6.79868e-08
2.15834e-06
1.49209e-07
2.15113e-06
-8.74992e-08
2.16128e-06
1.46446e-07
2.15028e-06
-5.26886e-08
2.16141e-06
9.61896e-08
2.14902e-06
1.33539e-08
2.15604e-06
6.57525e-08
2.14489e-06
7.34356e-08
2.14326e-06
9.81932e-08
1.56694e-07
2.13956e-06
2.24461e-06
-1.04941e-07
2.24544e-06
-8.20618e-08
2.24507e-06
4.40031e-08
2.24755e-06
2.64251e-09
2.25066e-06
1.64535e-07
2.25264e-06
1.12394e-08
2.25524e-06
1.05784e-07
2.25506e-06
-3.2878e-08
2.25842e-06
1.09866e-07
2.25501e-06
-6.45813e-08
2.26208e-06
1.42136e-07
2.25416e-06
-7.95777e-08
2.26521e-06
1.35402e-07
2.25365e-06
-4.11299e-08
2.26486e-06
8.49743e-08
2.253e-06
2.52142e-08
2.25847e-06
6.0282e-08
2.24921e-06
8.27029e-08
2.24574e-06
1.01663e-07
1.58487e-07
2.24394e-06
2.35185e-06
-1.02916e-07
2.35283e-06
-8.30441e-08
2.35257e-06
4.42679e-08
2.35529e-06
-8.28529e-11
2.35864e-06
1.61191e-07
2.3604e-06
9.47887e-09
2.36326e-06
1.02922e-07
2.36268e-06
-3.23006e-08
2.36665e-06
1.05896e-07
2.36268e-06
-6.06099e-08
2.37063e-06
1.34184e-07
2.36201e-06
-7.09609e-08
2.37378e-06
1.2364e-07
2.36197e-06
-2.93212e-08
2.37282e-06
7.41169e-08
2.36196e-06
3.60797e-08
2.36552e-06
5.67208e-08
2.35825e-06
8.99706e-08
2.35329e-06
1.0663e-07
1.59018e-07
2.35275e-06
2.46427e-06
-1.0079e-07
2.46535e-06
-8.41275e-08
2.46515e-06
4.44715e-08
2.46803e-06
-2.96535e-09
2.47169e-06
1.57536e-07
2.4732e-06
7.96078e-09
2.47644e-06
9.96816e-08
2.4754e-06
-3.12529e-08
2.48005e-06
1.01242e-07
2.47545e-06
-5.60046e-08
2.48424e-06
1.25388e-07
2.47503e-06
-6.17527e-08
2.48725e-06
1.1142e-07
2.47558e-06
-1.76506e-08
2.48563e-06
6.40757e-08
2.47613e-06
4.55704e-08
2.47761e-06
5.52414e-08
2.47223e-06
9.5355e-08
2.46628e-06
1.12583e-07
1.58939e-07
2.46636e-06
2.5821e-06
-9.85957e-08
2.58323e-06
-8.52549e-08
2.58309e-06
4.46047e-08
2.58604e-06
-5.91506e-09
2.5901e-06
1.53482e-07
2.59131e-06
6.74519e-09
2.59506e-06
9.5938e-08
2.59346e-06
-2.96589e-08
2.59886e-06
9.58431e-08
2.59361e-06
-5.07482e-08
2.60316e-06
1.15836e-07
2.59356e-06
-5.21521e-08
2.6059e-06
9.90787e-08
2.5948e-06
-6.55127e-09
2.60361e-06
5.52634e-08
2.59573e-06
5.34525e-08
2.59518e-06
5.57926e-08
2.59135e-06
9.91807e-08
2.585e-06
1.1893e-07
1.58825e-07
2.58512e-06
2.7056e-06
-9.63649e-08
2.7067e-06
-8.63584e-08
2.70669e-06
4.4615e-08
2.70961e-06
-8.83549e-09
2.71417e-06
1.48924e-07
2.715e-06
5.91834e-09
2.71936e-06
9.15745e-08
2.71715e-06
-2.74531e-08
2.72333e-06
8.96699e-08
2.71747e-06
-4.48891e-08
2.72761e-06
1.05696e-07
2.71791e-06
-4.24492e-08
2.72998e-06
8.70035e-08
2.71987e-06
3.55551e-09
2.72714e-06
4.79982e-08
2.72094e-06
5.9655e-08
2.7186e-06
5.81262e-08
2.71588e-06
1.019e-07
2.7097e-06
1.25116e-07
1.59101e-07
2.70942e-06
2.83503e-06
-9.41245e-08
2.83603e-06
-8.73564e-08
2.83623e-06
4.44126e-08
2.83901e-06
-1.16212e-08
2.84419e-06
1.43744e-07
2.84453e-06
5.58021e-09
2.84962e-06
8.64904e-08
2.84676e-06
-2.45991e-08
2.85369e-06
8.27471e-08
2.84736e-06
-3.85588e-08
2.85783e-06
9.52168e-08
2.84839e-06
-3.30079e-08
2.8598e-06
7.55922e-08
2.85105e-06
1.23107e-08
2.8566e-06
4.24493e-08
2.85196e-06
6.42897e-08
2.84822e-06
6.18701e-08
2.84614e-06
1.03977e-07
2.84055e-06
1.3071e-07
1.59996e-07
2.83965e-06
2.97067e-06
-9.19003e-08
2.97147e-06
-8.81532e-08
2.972e-06
4.38768e-08
2.97454e-06
-1.4159e-08
2.98047e-06
1.37816e-07
2.98022e-06
5.82608e-09
2.9861e-06
8.06181e-08
2.98261e-06
-2.11103e-08
2.99018e-06
7.51721e-08
2.9836e-06
-3.19779e-08
2.99409e-06
8.4725e-08
2.98532e-06
-2.42377e-08
2.9957e-06
6.52145e-08
2.98854e-06
1.94675e-08
2.99239e-06
3.8607e-08
2.98908e-06
6.75976e-08
2.98431e-06
6.66436e-08
2.98246e-06
1.05819e-07
2.97776e-06
1.35417e-07
1.61583e-07
2.97617e-06
3.11282e-06
-8.97169e-08
3.11331e-06
-8.86398e-08
3.11432e-06
4.28638e-08
3.1165e-06
-1.63331e-08
3.12329e-06
1.31022e-07
3.12239e-06
6.72329e-09
3.12907e-06
7.39449e-08
3.12503e-06
-1.70742e-08
3.13307e-06
6.7131e-08
3.12655e-06
-2.54548e-08
3.13667e-06
7.45992e-08
3.12899e-06
-1.65519e-08
3.13801e-06
5.61913e-08
3.1326e-06
2.48778e-08
3.13487e-06
3.6341e-08
3.13267e-06
6.97947e-08
3.12717e-06
7.21479e-08
3.12513e-06
1.07854e-07
3.12153e-06
1.39012e-07
1.63857e-07
3.11926e-06
3.26179e-06
-8.75979e-08
3.26185e-06
-8.8699e-08
3.26349e-06
4.12197e-08
3.2652e-06
-1.80393e-08
3.27295e-06
1.23275e-07
3.27138e-06
8.2863e-09
3.27879e-06
6.65359e-08
3.27439e-06
-1.26728e-08
3.28262e-06
5.89077e-08
3.27653e-06
-1.93701e-08
3.2859e-06
6.52315e-08
3.27965e-06
-1.03031e-08
3.2871e-06
4.87395e-08
3.28348e-06
2.84954e-08
3.28439e-06
3.54339e-08
3.28327e-06
7.09168e-08
3.27726e-06
7.81603e-08
3.27442e-06
1.1069e-07
3.27185e-06
1.41584e-07
1.66515e-07
3.26919e-06
3.4179e-06
-8.55643e-08
3.41741e-06
-8.82144e-08
3.41984e-06
3.87978e-08
3.421e-06
-1.92057e-08
3.42973e-06
1.14542e-07
3.42758e-06
1.04452e-08
3.43555e-06
5.85586e-08
3.43107e-06
-8.19047e-09
3.43913e-06
5.08524e-08
3.43384e-06
-1.40876e-08
3.44219e-06
5.6882e-08
3.43746e-06
-5.57104e-09
3.44347e-06
4.27277e-08
3.44137e-06
3.05963e-08
3.44144e-06
3.53635e-08
3.44161e-06
7.07466e-08
3.43574e-06
8.40352e-08
3.43139e-06
1.1504e-07
3.42761e-06
1.45359e-07
1.67475e-07
3.42665e-06
3.58148e-06
-8.3634e-08
3.58034e-06
-8.70744e-08
3.58367e-06
3.54677e-08
3.58426e-06
-1.97992e-08
3.59396e-06
1.04845e-07
3.59133e-06
1.30726e-08
3.59968e-06
5.02163e-08
3.59537e-06
-3.88617e-09
3.60304e-06
4.31859e-08
3.59863e-06
-9.67995e-09
3.60618e-06
4.93285e-08
3.60236e-06
-1.75059e-09
3.60788e-06
3.72075e-08
3.60628e-06
3.22058e-08
3.60686e-06
3.47798e-08
3.6085e-06
6.91073e-08
3.60725e-06
8.52803e-08
3.60503e-06
1.17265e-07
3.59097e-06
1.59421e-07
1.64061e-07
3.59438e-06
3.75289e-06
-8.18176e-08
3.751e-06
-8.51894e-08
3.75533e-06
3.11466e-08
3.75539e-06
-1.9864e-08
3.76593e-06
9.4305e-08
3.76309e-06
1.59148e-08
3.77147e-06
4.18336e-08
3.76769e-06
-1.03578e-10
3.77474e-06
3.61349e-08
3.77117e-06
-6.11136e-09
3.77829e-06
4.22129e-08
3.77474e-06
1.79554e-09
3.78059e-06
3.13595e-08
3.77885e-06
3.3939e-08
3.78112e-06
3.25166e-08
3.78296e-06
6.72672e-08
3.78268e-06
8.55579e-08
3.78839e-06
1.11553e-07
3.80313e-06
1.44683e-07
1.9176e-07
3.77543e-06
3.93248e-06
-8.01123e-08
3.92982e-06
-8.25257e-08
3.93511e-06
2.58604e-08
3.93483e-06
-1.95888e-08
3.94591e-06
8.32243e-08
3.94334e-06
1.849e-08
3.95118e-06
3.39864e-08
3.94853e-06
2.54797e-09
3.95442e-06
3.02455e-08
3.95214e-06
-3.8262e-09
3.95831e-06
3.6042e-08
3.95572e-06
4.37788e-09
3.96099e-06
2.60977e-08
3.96027e-06
3.46507e-08
3.95875e-06
3.4042e-08
3.95322e-06
7.27938e-08
3.94773e-06
9.10539e-08
3.94292e-06
1.16359e-07
3.93402e-06
1.53585e-07
1.8237e-07
3.94341e-06
4.12064e-06
-7.85067e-08
4.11722e-06
-7.91014e-08
4.12335e-06
1.97328e-08
4.12302e-06
-1.92581e-08
4.13428e-06
7.19643e-08
4.13245e-06
2.03134e-08
4.13933e-06
2.71146e-08
4.13811e-06
3.75949e-09
4.14268e-06
2.56753e-08
4.1417e-06
-2.84165e-09
4.14669e-06
3.10488e-08
4.14539e-06
5.67766e-09
4.14772e-06
2.37672e-08
4.14391e-06
3.84645e-08
4.13662e-06
4.13319e-08
4.1347e-06
7.47176e-08
4.12917e-06
9.6584e-08
4.12437e-06
1.21152e-07
4.12192e-06
1.56033e-07
1.78419e-07
4.12588e-06
4.31777e-06
-7.69731e-08
4.31367e-06
-7.50046e-08
4.32039e-06
1.30176e-08
4.3204e-06
-1.92698e-08
4.33144e-06
6.09231e-08
4.33079e-06
2.09585e-08
4.33648e-06
2.1428e-08
4.33659e-06
3.65553e-09
4.34023e-06
2.20275e-08
4.33984e-06
-2.4439e-09
4.34369e-06
2.7199e-08
4.34075e-06
8.60915e-09
4.33824e-06
2.62764e-08
4.33419e-06
4.25207e-08
4.32838e-06
4.71393e-08
4.32634e-06
7.67621e-08
4.32158e-06
1.0134e-07
4.31793e-06
1.24799e-07
4.31815e-06
1.55813e-07
1.76297e-07
4.32027e-06
4.52427e-06
-7.54654e-08
4.51968e-06
-7.04209e-08
4.52655e-06
6.15276e-09
4.52746e-06
-2.01837e-08
4.53781e-06
5.0575e-08
4.53875e-06
2.00181e-08
4.54319e-06
1.69871e-08
4.54427e-06
2.57912e-09
4.54738e-06
1.89095e-08
4.54628e-06
-1.33527e-09
4.54757e-06
2.59051e-08
4.54229e-06
1.38926e-08
4.53942e-06
2.91417e-08
4.5354e-06
4.65458e-08
4.53032e-06
5.22145e-08
4.52794e-06
7.91416e-08
4.52414e-06
1.05141e-07
4.52143e-06
1.27509e-07
4.52306e-06
1.54181e-07
1.74822e-07
4.52454e-06
4.74057e-06
-7.39194e-08
4.73577e-06
-6.56228e-08
4.74223e-06
-3.02834e-10
4.74461e-06
-2.25717e-08
4.75394e-06
4.12483e-08
4.75656e-06
1.73968e-08
4.76008e-06
1.34674e-08
4.76139e-06
1.27102e-09
4.76396e-06
1.63422e-08
4.76038e-06
2.24003e-09
4.75927e-06
2.70154e-08
4.75396e-06
1.92067e-08
4.751e-06
3.21045e-08
4.74713e-06
5.04131e-08
4.74233e-06
5.70075e-08
4.73979e-06
8.1687e-08
4.73688e-06
1.08047e-07
4.73497e-06
1.29426e-07
4.73696e-06
1.52182e-07
1.73005e-07
4.73878e-06
4.96714e-06
-7.22583e-08
4.96247e-06
-6.09566e-08
4.96788e-06
-5.71702e-09
4.97224e-06
-2.69242e-08
4.98046e-06
3.30294e-08
4.98447e-06
1.33829e-08
4.98766e-06
1.02754e-08
4.98797e-06
9.64496e-10
4.98894e-06
1.53693e-08
4.98329e-06
7.89399e-09
4.98123e-06
2.90731e-08
4.97613e-06
2.43103e-08
4.9732e-06
3.50331e-08
4.96951e-06
5.41007e-08
4.96483e-06
6.16854e-08
4.96224e-06
8.42835e-08
4.96012e-06
1.10167e-07
4.95904e-06
1.30498e-07
4.96055e-06
1.50675e-07
1.70357e-07
4.9632e-06
5.20445e-06
-7.03959e-08
5.20033e-06
-5.68276e-08
5.20406e-06
-9.45418e-09
5.21064e-06
-3.35032e-08
5.218e-06
2.56714e-08
5.22276e-06
8.62183e-09
5.22601e-06
7.02506e-09
5.22391e-06
3.06882e-09
5.22264e-06
1.66369e-08
5.21689e-06
1.36405e-08
5.21412e-06
3.18426e-08
5.20931e-06
2.912e-08
5.20636e-06
3.79903e-08
5.20292e-06
5.75361e-08
5.19832e-06
6.62896e-08
5.1957e-06
8.69031e-08
5.19436e-06
1.11506e-07
5.19391e-06
1.30941e-07
5.19509e-06
1.49497e-07
1.67183e-07
5.19827e-06
5.45304e-06
-6.8243e-08
5.44989e-06
-5.3678e-08
5.45142e-06
-1.09865e-08
5.46007e-06
-4.21509e-08
5.46712e-06
1.86221e-08
5.47161e-06
4.13214e-09
5.47451e-06
4.12278e-09
5.46955e-06
8.0217e-09
5.46688e-06
1.93105e-08
5.46176e-06
1.87603e-08
5.45862e-06
3.49849e-08
5.45396e-06
3.37753e-08
5.45091e-06
4.10432e-08
5.44781e-06
6.06417e-08
5.44333e-06
7.07695e-08
5.44069e-06
8.95369e-08
5.44007e-06
1.12132e-07
5.44002e-06
1.30983e-07
5.44127e-06
1.48253e-07
1.63798e-07
5.44465e-06
5.71344e-06
-6.57247e-08
5.71169e-06
-5.19234e-08
5.71076e-06
-1.00655e-08
5.72069e-06
-5.20718e-08
5.72806e-06
1.12491e-08
5.73066e-06
1.52774e-09
5.73219e-06
2.59205e-09
5.72653e-06
1.36803e-08
5.72285e-06
2.2996e-08
5.71851e-06
2.30966e-08
5.71524e-06
3.82571e-08
5.71058e-06
3.844e-08
5.70739e-06
4.42332e-08
5.70463e-06
6.33978e-08
5.70041e-06
7.49906e-08
5.69781e-06
9.21378e-08
5.69767e-06
1.12273e-07
5.698e-06
1.30649e-07
5.69953e-06
1.46725e-07
1.60301e-07
5.70303e-06
5.98626e-06
-6.27908e-08
5.98625e-06
-5.19191e-08
5.98293e-06
-6.73673e-09
5.99276e-06
-6.19026e-08
6.0006e-06
3.41005e-09
6.00019e-06
1.93423e-09
6.00091e-06
1.86725e-09
5.99583e-06
1.87644e-08
5.99149e-06
2.73378e-08
5.98764e-06
2.69462e-08
5.98448e-06
4.14146e-08
5.97974e-06
4.31785e-08
5.97635e-06
4.7627e-08
5.9739e-06
6.5847e-08
5.97011e-06
7.87829e-08
5.96764e-06
9.46097e-08
5.9677e-06
1.12206e-07
5.96845e-06
1.29896e-07
5.97036e-06
1.4482e-07
1.56684e-07
5.97398e-06
6.27212e-06
-5.94195e-08
6.27408e-06
-5.38782e-08
6.26875e-06
-1.40955e-09
6.27676e-06
-6.99159e-08
6.28474e-06
-4.56871e-09
6.28214e-06
4.53604e-09
6.28233e-06
1.67334e-09
6.27821e-06
2.28851e-08
6.27345e-06
3.20975e-08
6.26971e-06
3.06858e-08
6.26683e-06
4.42944e-08
6.26208e-06
4.79285e-08
6.25842e-06
5.12933e-08
6.25619e-06
6.80774e-08
6.25296e-06
8.20089e-08
6.25075e-06
9.68172e-08
6.25083e-06
1.12128e-07
6.25198e-06
1.28744e-07
6.25431e-06
1.42497e-07
1.52901e-07
6.25809e-06
6.57167e-06
-5.56183e-08
6.5756e-06
-5.7814e-08
6.56896e-06
5.23637e-09
6.57373e-06
-7.46865e-08
6.58181e-06
-1.26457e-08
6.57812e-06
8.21766e-09
6.57742e-06
2.37975e-09
6.57432e-06
2.59871e-08
6.56933e-06
3.70866e-08
6.56539e-06
3.4618e-08
6.56283e-06
4.68589e-08
6.55822e-06
5.25377e-08
6.55425e-06
5.5263e-08
6.55213e-06
7.02005e-08
6.54952e-06
8.46159e-08
6.54774e-06
9.86019e-08
6.54776e-06
1.12102e-07
6.54923e-06
1.27281e-07
6.55196e-06
1.39765e-07
1.48892e-07
6.55597e-06
6.8856e-06
-5.14259e-08
6.8913e-06
-6.35132e-08
6.88421e-06
1.23271e-08
6.88514e-06
-7.56242e-08
6.89306e-06
-2.05621e-08
6.88883e-06
1.24486e-08
6.88694e-06
4.26859e-09
6.88471e-06
2.82191e-08
6.87973e-06
4.20688e-08
6.87539e-06
3.89584e-08
6.87307e-06
4.91724e-08
6.86877e-06
5.68368e-08
6.86455e-06
5.94903e-08
6.86241e-06
7.23365e-08
6.86039e-06
8.66342e-08
6.85918e-06
9.98151e-08
6.85919e-06
1.12085e-07
6.86087e-06
1.25605e-07
6.86395e-06
1.36684e-07
1.44619e-07
6.86822e-06
7.21462e-06
-4.69107e-08
7.22166e-06
-7.05491e-08
7.2151e-06
1.88836e-08
7.21222e-06
-7.27485e-08
7.21938e-06
-2.77174e-08
7.21487e-06
1.69637e-08
7.21159e-06
7.53914e-09
7.21003e-06
2.97853e-08
7.20526e-06
4.68374e-08
7.20044e-06
4.37769e-08
7.19822e-06
5.13977e-08
7.19438e-06
6.06769e-08
7.19002e-06
6.38468e-08
7.18776e-06
7.45964e-08
7.18627e-06
8.81246e-08
7.18568e-06
1.00407e-07
7.18582e-06
1.11942e-07
7.18765e-06
1.2378e-07
7.19098e-06
1.33349e-07
1.40093e-07
7.19551e-06
7.55948e-06
-4.21615e-08
7.5673e-06
-7.83707e-08
7.56214e-06
2.40448e-08
7.55585e-06
-6.6462e-08
7.56157e-06
-3.34394e-08
7.55691e-06
2.16224e-08
7.55212e-06
1.2328e-08
7.55094e-06
3.09679e-08
7.5466e-06
5.11805e-08
7.54132e-06
4.90541e-08
7.53898e-06
5.37397e-08
7.5357e-06
6.39578e-08
7.5314e-06
6.81507e-08
7.52894e-06
7.70533e-08
7.52791e-06
8.91524e-08
7.52786e-06
1.00459e-07
7.52833e-06
1.1147e-07
7.5303e-06
1.21808e-07
7.5338e-06
1.2985e-07
1.35362e-07
7.53853e-06
7.92093e-06
-3.72765e-08
7.92881e-06
-8.62515e-08
7.92583e-06
2.7022e-08
7.91674e-06
-5.73764e-08
7.92039e-06
-3.70805e-08
7.91566e-06
2.63524e-08
7.90934e-06
1.86393e-08
7.90819e-06
3.21263e-08
7.90445e-06
5.49193e-08
7.89881e-06
5.46943e-08
7.89615e-06
5.63997e-08
7.89344e-06
6.66605e-08
7.88941e-06
7.21847e-08
7.88675e-06
7.97109e-08
7.88607e-06
8.98346e-08
7.88646e-06
1.00071e-07
7.88742e-06
1.10509e-07
7.88959e-06
1.19633e-07
7.8932e-06
1.26241e-07
1.30494e-07
7.89807e-06
8.29975e-06
-3.23471e-08
8.30701e-06
-9.35112e-08
8.30659e-06
2.74389e-08
8.29538e-06
-4.61582e-08
8.29654e-06
-3.82443e-08
8.29181e-06
3.10844e-08
8.2841e-06
2.63491e-08
8.28257e-06
3.36588e-08
8.27953e-06
5.796e-08
8.2737e-06
6.05167e-08
8.27055e-06
5.95505e-08
8.26834e-06
6.88686e-08
8.2648e-06
7.57247e-08
8.26203e-06
8.24816e-08
8.26154e-06
9.03321e-08
8.26228e-06
9.9322e-08
8.2638e-06
1.08993e-07
8.26628e-06
1.17157e-07
8.26999e-06
1.22524e-07
1.2555e-07
8.27494e-06
8.69675e-06
-2.74388e-08
8.70309e-06
-9.98521e-08
8.70438e-06
2.61531e-08
8.69208e-06
-3.38582e-08
8.69073e-06
-3.68952e-08
8.68611e-06
3.57086e-08
8.67727e-06
3.51902e-08
8.67494e-06
3.59893e-08
8.67262e-06
6.02758e-08
8.66683e-06
6.63056e-08
8.66308e-06
6.3303e-08
8.66119e-06
7.07541e-08
8.65832e-06
7.85941e-08
8.65562e-06
8.51845e-08
8.65517e-06
9.07804e-08
8.65619e-06
9.83031e-08
8.65826e-06
1.06928e-07
8.66113e-06
1.14284e-07
8.665e-06
1.18652e-07
1.20564e-07
8.66999e-06
9.11278e-06
-2.26037e-08
9.11777e-06
-1.04842e-07
9.12019e-06
2.37364e-08
9.10697e-06
-2.06347e-08
9.10363e-06
-3.35596e-08
9.09933e-06
4.00094e-08
9.08969e-06
4.48303e-08
9.08628e-06
3.93986e-08
9.08453e-06
6.20244e-08
9.07903e-06
7.1804e-08
9.07465e-06
6.76844e-08
9.07285e-06
7.25519e-08
9.07074e-06
8.07069e-08
9.06836e-06
8.75704e-08
9.06789e-06
9.12423e-08
9.06907e-06
9.71238e-08
9.07162e-06
1.04382e-07
9.07496e-06
1.10942e-07
9.07907e-06
1.14548e-07
1.15531e-07
9.0841e-06
9.54873e-06
-1.7877e-08
9.5511e-06
-1.07213e-07
9.55399e-06
2.08466e-08
9.54081e-06
-7.45133e-09
9.53603e-06
-2.87746e-08
9.53229e-06
4.37477e-08
9.52226e-06
5.48578e-08
9.51758e-06
4.40785e-08
9.51614e-06
6.34613e-08
9.51117e-06
7.67797e-08
9.50624e-06
7.26133e-08
9.50428e-06
7.45112e-08
9.50289e-06
8.20953e-08
9.50107e-06
8.93869e-08
9.50063e-06
9.16842e-08
9.50188e-06
9.58767e-08
9.50479e-06
1.01473e-07
9.50862e-06
1.07111e-07
9.51304e-06
1.10125e-07
1.10408e-07
9.51817e-06
1.00055e-05
-1.32759e-08
1.00045e-05
-1.06137e-07
1.00077e-05
1.76212e-08
9.99483e-06
5.40683e-09
9.98887e-06
-2.28183e-08
9.98584e-06
4.67739e-08
9.97585e-06
6.48491e-08
9.96983e-06
5.01006e-08
9.96841e-06
6.48844e-08
9.9641e-06
8.10849e-08
9.95881e-06
7.79077e-08
9.95648e-06
7.68374e-08
9.95567e-06
8.29112e-08
9.95461e-06
9.04376e-08
9.95431e-06
9.19896e-08
9.9556e-06
9.45897e-08
9.95873e-06
9.83409e-08
9.963e-06
1.02835e-07
9.96782e-06
1.05311e-07
1.05121e-07
9.9731e-06
1.04842e-05
-8.81664e-09
1.04801e-05
-1.02025e-07
1.04831e-05
1.457e-08
1.04705e-05
1.80053e-08
1.04633e-05
-1.5595e-08
1.0461e-05
4.91125e-08
1.04514e-05
7.44549e-08
1.0444e-05
5.74141e-08
1.04423e-05
6.65918e-08
1.04388e-05
8.46655e-08
1.04333e-05
8.33225e-08
1.04305e-05
7.9648e-08
1.04301e-05
8.33869e-08
1.04298e-05
9.06438e-08
1.04299e-05
9.19803e-08
1.04312e-05
9.3219e-08
1.04345e-05
9.5095e-08
1.04391e-05
9.82174e-08
1.04443e-05
1.00085e-07
9.9586e-08
1.04498e-05
1.09857e-05
-4.52164e-09
1.09813e-05
-9.76083e-08
1.09816e-05
1.43151e-08
1.09691e-05
3.04192e-08
1.09606e-05
-7.08896e-09
1.09587e-05
5.10946e-08
1.09497e-05
8.33898e-08
1.09412e-05
6.59008e-08
1.0939e-05
6.88591e-08
1.09361e-05
8.75415e-08
1.09308e-05
8.85946e-08
1.09275e-05
8.29655e-08
1.09271e-05
8.37791e-08
1.09277e-05
9.00649e-08
1.09282e-05
9.14734e-08
1.09298e-05
9.16529e-08
1.09331e-05
9.178e-08
1.09379e-05
9.33796e-08
1.09435e-05
9.44831e-08
9.3739e-08
1.09494e-05
1.15112e-05
-3.7516e-10
1.1503e-05
-8.93691e-08
1.15039e-05
1.33979e-08
1.14921e-05
4.22336e-08
1.14822e-05
2.76332e-09
1.14801e-05
5.32465e-08
1.1472e-05
9.14642e-08
1.14625e-05
7.53991e-08
1.14594e-05
7.19596e-08
1.14572e-05
8.97888e-08
1.14523e-05
9.34602e-08
1.14485e-05
8.673e-08
1.1448e-05
8.43147e-08
1.14492e-05
8.88546e-08
1.14503e-05
9.03707e-08
1.14522e-05
8.97139e-08
1.14556e-05
8.83802e-08
1.14606e-05
8.84197e-08
1.14665e-05
8.85873e-08
8.75556e-08
1.14727e-05
1.20618e-05
3.61812e-09
1.2051e-05
-7.85283e-08
1.20508e-05
1.35509e-08
1.20402e-05
5.28694e-08
1.20292e-05
1.3767e-08
1.20265e-05
5.59745e-08
1.20192e-05
9.86862e-08
1.2009e-05
8.56659e-08
1.20048e-05
7.61793e-08
1.2003e-05
9.15649e-08
1.19988e-05
9.76633e-08
1.19947e-05
9.08144e-08
1.19939e-05
8.5159e-08
1.19955e-05
8.72342e-08
1.19972e-05
8.86636e-08
1.19997e-05
8.72165e-08
1.20032e-05
8.48271e-08
1.20083e-05
8.33882e-08
1.20144e-05
8.24864e-08
8.10491e-08
1.20209e-05
1.26387e-05
7.46361e-09
1.26262e-05
-6.59343e-08
1.26249e-05
1.48362e-08
1.26148e-05
6.29781e-08
1.26026e-05
2.59084e-08
1.25991e-05
5.9508e-08
1.25926e-05
1.05203e-07
1.25818e-05
9.6414e-08
1.25762e-05
8.17484e-08
1.25747e-05
9.31453e-08
1.25713e-05
1.01005e-07
1.25672e-05
9.49857e-08
1.25659e-05
8.64297e-08
1.25676e-05
8.54887e-08
1.257e-05
8.6318e-08
1.25731e-05
8.41038e-08
1.25769e-05
8.09713e-08
1.2582e-05
7.83056e-08
1.25883e-05
7.62361e-08
7.42503e-08
1.25951e-05
1.32432e-05
1.11572e-08
1.32308e-05
-5.35188e-08
1.32271e-05
1.85548e-08
1.32171e-05
7.3017e-08
1.32037e-05
3.92582e-08
1.31992e-05
6.40366e-08
1.31932e-05
1.11207e-07
1.31822e-05
1.07364e-07
1.31752e-05
8.8791e-08
1.31734e-05
9.4924e-08
1.3171e-05
1.03442e-07
1.31671e-05
9.88798e-08
1.31653e-05
8.8208e-08
1.31669e-05
8.3918e-08
1.31699e-05
8.32593e-08
1.31735e-05
8.05214e-08
1.3178e-05
7.65318e-08
1.3183e-05
7.32295e-08
1.31895e-05
6.98013e-08
6.71812e-08
1.31965e-05
1.38766e-05
1.46948e-08
1.38637e-05
-4.05614e-08
1.38584e-05
2.38486e-08
1.38484e-05
8.299e-08
1.38339e-05
5.37835e-08
1.38281e-05
6.98392e-08
1.38224e-05
1.16865e-07
1.38115e-05
1.18303e-07
1.3803e-05
9.72885e-08
1.38005e-05
9.73792e-08
1.37989e-05
1.05118e-07
1.37956e-05
1.02149e-07
1.37934e-05
9.04227e-08
1.37946e-05
8.27142e-08
1.37982e-05
7.96302e-08
1.38021e-05
7.65892e-08
1.38074e-05
7.12389e-08
1.38125e-05
6.81948e-08
1.38192e-05
6.3074e-08
5.9835e-08
1.38265e-05
1.45403e-05
1.80416e-08
1.45258e-05
-2.60929e-08
1.45201e-05
2.96383e-08
1.45101e-05
9.29811e-08
1.44945e-05
6.93401e-08
1.44871e-05
7.7295e-08
1.44816e-05
1.223e-07
1.44708e-05
1.29089e-07
1.4461e-05
1.07078e-07
1.44574e-05
1.00983e-07
1.44562e-05
1.06341e-07
1.44537e-05
1.04624e-07
1.44514e-05
9.27679e-08
1.44521e-05
8.1993e-08
1.44559e-05
7.58929e-08
1.44604e-05
7.20382e-08
1.44662e-05
6.54745e-08
1.44718e-05
6.25218e-08
1.44786e-05
5.63187e-08
5.2064e-08
1.44864e-05
1.52358e-05
2.11573e-08
1.52211e-05
-1.14462e-08
1.52137e-05
3.70461e-08
1.52034e-05
1.03263e-07
1.5187e-05
8.57557e-08
1.51776e-05
8.67062e-08
1.51721e-05
1.27771e-07
1.51616e-05
1.39572e-07
1.51508e-05
1.17953e-07
1.51457e-05
1.06075e-07
1.51444e-05
1.07601e-07
1.51427e-05
1.06305e-07
1.51406e-05
9.49029e-08
1.51408e-05
8.17685e-08
1.51443e-05
7.24062e-08
1.51496e-05
6.675e-08
1.51554e-05
5.97308e-08
1.51624e-05
5.54779e-08
1.51691e-05
4.96561e-08
4.39678e-08
1.51772e-05
1.59644e-05
2.40647e-08
1.59492e-05
3.82634e-09
1.59403e-05
4.58659e-08
1.59301e-05
1.13493e-07
1.59128e-05
1.03046e-07
1.59013e-05
9.81999e-08
1.58953e-05
1.33744e-07
1.58853e-05
1.49608e-07
1.58736e-05
1.29668e-07
1.58668e-05
1.12831e-07
1.58649e-05
1.09489e-07
1.58639e-05
1.07366e-07
1.58622e-05
9.66397e-08
1.58621e-05
8.18631e-08
1.58651e-05
6.93327e-08
1.58708e-05
6.10832e-08
1.58768e-05
5.3715e-08
1.58846e-05
4.77365e-08
1.58925e-05
4.16931e-08
3.64194e-08
1.59001e-05
1.67278e-05
2.68342e-08
1.67109e-05
2.07331e-08
1.67018e-05
5.50214e-08
1.66916e-05
1.23657e-07
1.66735e-05
1.21153e-07
1.66598e-05
1.11859e-07
1.66529e-05
1.40734e-07
1.66432e-05
1.59222e-07
1.66309e-05
1.41957e-07
1.66225e-05
1.21267e-07
1.66194e-05
1.12574e-07
1.66185e-05
1.08262e-07
1.66173e-05
9.78954e-08
1.66171e-05
8.20521e-08
1.66197e-05
6.67148e-08
1.66252e-05
5.5635e-08
1.6632e-05
4.68491e-08
1.66402e-05
3.95939e-08
1.66488e-05
3.30295e-08
2.7804e-08
1.66574e-05
1.75277e-05
2.94684e-08
1.75127e-05
3.5739e-08
1.75002e-05
6.75857e-08
1.74895e-05
1.34361e-07
1.74708e-05
1.39854e-07
1.74549e-05
1.27736e-07
1.74464e-05
1.49255e-07
1.74369e-05
1.68644e-07
1.74243e-05
1.54608e-07
1.74143e-05
1.31292e-07
1.74096e-05
1.17251e-07
1.74081e-05
1.09694e-07
1.74073e-05
9.87211e-08
1.74071e-05
8.22595e-08
1.74093e-05
6.45185e-08
1.74145e-05
5.04424e-08
1.74219e-05
3.94451e-08
1.74306e-05
3.08658e-08
1.74401e-05
2.3587e-08
1.79165e-08
1.745e-05
1.83657e-05
3.21042e-08
1.83499e-05
5.15712e-08
1.83365e-05
8.09325e-08
1.83254e-05
1.45536e-07
1.83063e-05
1.58932e-07
1.82882e-05
1.45831e-07
1.82777e-05
1.59783e-07
1.8268e-05
1.78254e-07
1.82551e-05
1.67504e-07
1.82436e-05
1.42821e-07
1.82371e-05
1.23792e-07
1.82345e-05
1.12305e-07
1.82337e-05
9.95078e-08
1.82334e-05
8.2566e-08
1.82353e-05
6.26384e-08
1.82402e-05
4.54671e-08
1.82479e-05
3.18187e-08
1.82573e-05
2.13998e-08
1.82679e-05
1.30515e-08
6.89958e-09
1.82789e-05
1.92436e-05
3.48818e-08
1.92286e-05
6.66296e-08
1.92129e-05
9.65989e-08
1.9201e-05
1.57441e-07
1.91818e-05
1.78085e-07
1.91616e-05
1.66042e-07
1.91486e-05
1.72765e-07
1.91383e-05
1.88546e-07
1.91252e-05
1.80679e-07
1.91122e-05
1.55772e-07
1.91035e-05
1.32469e-07
1.90993e-05
1.16567e-07