/*--------------------------------*- C++ -*----------------------------------*\
| =========                 |                                                 |
| \\      /  F ield         | OpenFOAM: The Open Source CFD Toolbox           |
|  \\    /   O peration     | Version:  v2012                                 |
|   \\  /    A nd           | Website:  www.openfoam.com                      |
|    \\/     M anipulation  |                                                 |
\*---------------------------------------------------------------------------*/
FoamFile
{
    version     2.0;
    format      ascii;
    class       volVectorField;
    location    "2.45";
    object      U;
}
// * * * * * * * * * * * * * * * * * * * * * * * * * * * * * * * * * * * * * //

dimensions      [0 1 -1 0 0 0 0];


internalField   nonuniform List<vector> 
17600
(
(0.824805 -0.00101823 0)
(1.17485 -0.000809991 0)
(0.835128 0.000367931 0)
(1.16361 0.000757769 0)
(0.85735 0.00244168 0)
(1.14758 0.000809282 0)
(0.869919 0.00151585 0)
(1.12814 -0.000697339 0)
(0.877203 0.00177898 0)
(1.11157 -0.00229951 0)
(0.880302 0.00385143 0)
(1.10075 -0.00408636 0)
(0.877096 0.00557872 0)
(1.09464 -0.0044471 0)
(0.867873 0.00521514 0)
(1.09027 -0.00329402 0)
(0.855405 0.00443127 0)
(1.08642 -0.00245048 0)
(0.836187 0.00414369 0)
(1.08272 -0.00162863 0)
(0.836229 -0.0011044 0)
(1.16326 -0.000700768 0)
(0.848208 0.000266843 0)
(1.15093 0.000779708 0)
(0.872509 0.00237317 0)
(1.13228 0.000901122 0)
(0.888083 0.00150699 0)
(1.11011 -0.000556119 0)
(0.898215 0.00175897 0)
(1.08977 -0.00210427 0)
(0.904895 0.00376482 0)
(1.07292 -0.0037845 0)
(0.907857 0.00542136 0)
(1.05723 -0.00408596 0)
(0.910945 0.00513714 0)
(1.0378 -0.003101 0)
(0.920282 0.00473802 0)
(1.01061 -0.00275282 0)
(0.935237 0.00555705 0)
(0.970345 -0.00285087 0)
(0.857986 -0.00118653 0)
(1.14045 -0.00061365 0)
(0.873448 0.000168432 0)
(1.12602 0.000768456 0)
(0.900553 0.00235207 0)
(1.10475 0.000936744 0)
(0.919351 0.00156238 0)
(1.08034 -0.000482899 0)
(0.931967 0.00183642 0)
(1.05747 -0.00200672 0)
(0.941022 0.00381347 0)
(1.03831 -0.003628 0)
(0.947218 0.00543833 0)
(1.02104 -0.00390191 0)
(0.954365 0.0052016 0)
(1.00251 -0.00294473 0)
(0.964026 0.0048774 0)
(0.984156 -0.00243144 0)
(0.969532 0.00566674 0)
(0.967819 -0.00126367 0)
(0.886965 -0.00123536 0)
(1.10956 -0.000598983 0)
(0.905362 0.000137116 0)
(1.09351 0.000687541 0)
(0.933299 0.00240834 0)
(1.07252 0.000875922 0)
(0.952527 0.00169836 0)
(1.04976 -0.000509603 0)
(0.964 0.0020097 0)
(1.0294 -0.00201595 0)
(0.970773 0.00396789 0)
(1.01464 -0.00359322 0)
(0.974453 0.00557416 0)
(1.00373 -0.00385604 0)
(0.978101 0.00536399 0)
(0.993685 -0.00288387 0)
(0.981237 0.00500163 0)
(0.985668 -0.00217219 0)
(0.97916 0.00566206 0)
(0.978286 4.71636e-05 0)
(0.918293 -0.00124983 0)
(1.07642 -0.000645011 0)
(0.936684 0.000166332 0)
(1.06059 0.000553889 0)
(0.961856 0.00250027 0)
(1.04384 0.000764835 0)
(0.978105 0.0018562 0)
(1.02692 -0.000560845 0)
(0.985499 0.0021864 0)
(1.01263 -0.00201931 0)
(0.987812 0.00408793 0)
(1.00423 -0.00353286 0)
(0.98793 0.00563348 0)
(0.999178 -0.00377289 0)
(0.988417 0.00542438 0)
(0.994227 -0.00278841 0)
(0.988402 0.00503826 0)
(0.989559 -0.00191827 0)
(0.98479 0.0056446 0)
(0.983401 0.00122629 0)
(0.946872 -0.00123614 0)
(1.04717 -0.000720622 0)
(0.961826 0.000228143 0)
(1.0336 0.000411515 0)
(0.981297 0.00257934 0)
(1.02345 0.000654182 0)
(0.993039 0.00197568 0)
(1.0138 -0.000586651 0)
(0.996365 0.00230968 0)
(1.00539 -0.00197881 0)
(0.995408 0.00413348 0)
(1.00127 -0.00342955 0)
(0.993727 0.00559343 0)
(0.999013 -0.00363456 0)
(0.993105 0.00535872 0)
(0.995944 -0.00261519 0)
(0.992319 0.00496082 0)
(0.992177 -0.0015768 0)
(0.988638 0.00558056 0)
(0.986661 0.00234476 0)
(0.969196 -0.00120702 0)
(1.02563 -0.000793731 0)
(0.978733 0.000298315 0)
(1.01547 0.000296794 0)
(0.991703 0.0026181 0)
(1.0115 0.000565671 0)
(0.999593 0.00203548 0)
(1.00772 -0.00058616 0)
(1.00067 0.00237831 0)
(1.00315 -0.00191401 0)
(0.998485 0.00413181 0)
(1.00108 -0.00331366 0)
(0.996472 0.00550767 0)
(0.999887 -0.00347336 0)
(0.995744 0.00522523 0)
(0.997583 -0.00237141 0)
(0.994903 0.00477809 0)
(0.994296 -0.00111128 0)
(0.991375 0.00543216 0)
(0.989411 0.00341333 0)
(0.984223 -0.00117647 0)
(1.01231 -0.00084423 0)
(0.988443 0.000361631 0)
(1.00547 0.000222171 0)
(0.996083 0.00261575 0)
(1.00554 0.000496838 0)
(1.00163 0.00204573 0)
(1.0053 -0.000576921 0)
(1.00218 0.00241028 0)
(1.00283 -0.00184492 0)
(1.00005 0.0041059 0)
(1.00171 -0.00319576 0)
(0.998289 0.00540249 0)
(1.00103 -0.00330298 0)
(0.997732 0.0050657 0)
(0.999175 -0.00209064 0)
(0.997001 0.00453606 0)
(0.996244 -0.000563386 0)
(0.9937 0.00521423 0)
(0.99188 0.00441542 0)
(0.992978 -0.00115268 0)
(1.00528 -0.000868942 0)
(0.993369 0.000412068 0)
(1.00103 0.000180844 0)
(0.99767 0.00258716 0)
(1.00295 0.000438728 0)
(1.00203 0.00202604 0)
(1.00439 -0.000571451 0)
(1.00288 0.00241956 0)
(1.00311 -0.00177977 0)
(1.00128 0.00406265 0)
(1.00259 -0.00307408 0)
(0.999917 0.0052758 0)
(1.00226 -0.00311447 0)
(0.999548 0.00487434 0)
(1.00072 -0.00177633 0)
(0.998928 0.00426007 0)
(0.998071 1.93991e-05 0)
(0.995853 0.00495851 0)
(0.994153 0.00532206 0)
(0.997428 -0.0011364 0)
(1.00201 -0.000876171 0)
(0.995739 0.00044987 0)
(0.99959 0.000158794 0)
(0.998468 0.00254785 0)
(1.00199 0.000385956 0)
(1.00217 0.00199205 0)
(1.00404 -0.000573195 0)
(1.00345 0.00241306 0)
(1.00351 -0.00172066 0)
(1.00246 0.00400311 0)
(1.00346 -0.00294742 0)
(1.00146 0.00512294 0)
(1.00342 -0.0028997 0)
(1.00122 0.00463942 0)
(1.00215 -0.00142331 0)
(1.00066 0.00395289 0)
(0.99971 0.000630491 0)
(0.997782 0.00470405 0)
(0.996186 0.00610079 0)
(0.999444 -0.00112415 0)
(1.00052 -0.000876327 0)
(0.99694 0.000477296 0)
(0.999418 0.000143526 0)
(0.999215 0.00250663 0)
(1.00175 0.000337268 0)
(1.0024 0.00195285 0)
(1.0039 -0.000580383 0)
(1.00397 0.00239382 0)
(1.00387 -0.0016666 0)
(1.00348 0.0039265 0)
(1.00421 -0.00281381 0)
(1.00279 0.00494169 0)
(1.00441 -0.00265633 0)
(1.00263 0.00436002 0)
(1.00333 -0.00102773 0)
(1.00209 0.0036111 0)
(1.00105 0.00126041 0)
(0.999374 0.00450026 0)
(0.997882 0.00673328 0)
(1.0003 -0.0011122 0)
(0.999773 -0.000876329 0)
(0.997618 0.000496387 0)
(0.999646 0.000127272 0)
(0.999967 0.00246623 0)
(1.0018 0.000292983 0)
(1.00268 0.00191265 0)
(1.00384 -0.000589741 0)
(1.00436 0.00236372 0)
(1.00414 -0.00161497 0)
(1.00425 0.00383152 0)
(1.00478 -0.00266936 0)
(1.00379 0.00472995 0)
(1.00515 -0.00238278 0)
(1.00368 0.00404016 0)
(1.0042 -0.000596472 0)
(1.00315 0.00325307 0)
(1.00205 0.00187163 0)
(1.00058 0.00438103 0)
(0.999192 0.00721098 0)
(1.00066 -0.00109848 0)
(0.999336 -0.000878999 0)
(0.998025 0.000508975 0)
(0.999926 0.000106584 0)
(1.00061 0.00242639 0)
(1.00194 0.000253248 0)
(1.00292 0.00187273 0)
(1.00381 -0.000598405 0)
(1.00461 0.00232406 0)
(1.00431 -0.00156206 0)
(1.00474 0.00371663 0)
(1.00516 -0.00250902 0)
(1.00445 0.00448476 0)
(1.00565 -0.00207621 0)
(1.00438 0.00368645 0)
(1.00477 -0.000152921 0)
(1.00387 0.00291036 0)
(1.00272 0.00243431 0)
(1.00143 0.0043617 0)
(1.00016 0.00753948 0)
(1.00083 -0.00108241 0)
(0.999068 -0.000884737 0)
(0.998268 0.000516998 0)
(1.00016 8.06571e-05 0)
(1.00108 0.00238603 0)
(1.00209 0.00021758 0)
(1.00309 0.00183289 0)
(1.0038 -0.000604268 0)
(1.00473 0.00227482 0)
(1.00442 -0.0015034 0)
(1.005 0.00358061 0)
(1.0054 -0.00233048 0)
(1.00484 0.00420895 0)
(1.00594 -0.00174355 0)
(1.00483 0.0033149 0)
(1.00511 0.000287559 0)
(1.00433 0.00260735 0)
(1.00316 0.00291854 0)
(1.00202 0.00444358 0)
(1.00086 0.00774695 0)
(1.00091 -0.00106424 0)
(0.998913 -0.000893061 0)
(0.998409 0.000522225 0)
(1.00032 4.99996e-05 0)
(1.00139 0.00234404 0)
(1.0022 0.000185282 0)
(1.00319 0.00179191 0)
(1.00381 -0.000605249 0)
(1.00477 0.00221458 0)
(1.00449 -0.00143497 0)
(1.00512 0.00342288 0)
(1.00555 -0.00213337 0)
(1.00505 0.00390811 0)
(1.0061 -0.00139544 0)
(1.0051 0.00294036 0)
(1.00529 0.000723296 0)
(1.00464 0.00236935 0)
(1.00345 0.0033129 0)
(1.00245 0.00461503 0)
(1.00141 0.00786675 0)
(1.00094 -0.00104443 0)
(0.998835 -0.000903354 0)
(0.998494 0.000525965 0)
(1.00044 1.5691e-05 0)
(1.00158 0.00229919 0)
(1.00228 0.000156862 0)
(1.00324 0.00174771 0)
(1.00382 -0.000598867 0)
(1.00477 0.0021418 0)
(1.00454 -0.00135433 0)
(1.00516 0.00324316 0)
(1.00563 -0.00191668 0)
(1.00517 0.00358351 0)
(1.00617 -0.00103522 0)
(1.00528 0.00257082 0)
(1.00538 0.00113443 0)
(1.00486 0.00221694 0)
(1.00367 0.00362646 0)
(1.00278 0.00485178 0)
(1.00187 0.0079288 0)
(1.00096 -0.00102338 0)
(0.998807 -0.000915204 0)
(0.99855 0.000528995 0)
(1.00052 -2.12687e-05 0)
(1.00169 0.00225078 0)
(1.00233 0.000131143 0)
(1.00326 0.00169735 0)
(1.00383 -0.000583857 0)
(1.00476 0.00205557 0)
(1.00457 -0.00125938 0)
(1.00517 0.00304145 0)
(1.00568 -0.00168201 0)
(1.00524 0.00324114 0)
(1.00619 -0.000673523 0)
(1.00541 0.00222347 0)
(1.00542 0.00149339 0)
(1.00502 0.00215173 0)
(1.00387 0.00386927 0)
(1.00307 0.00512669 0)
(1.00229 0.00796692 0)
(1.00096 -0.00100146 0)
(0.998808 -0.000928019 0)
(0.998592 0.000531511 0)
(1.00059 -5.98253e-05 0)
(1.00175 0.00219746 0)
(1.00235 0.000108985 0)
(1.00326 0.00163923 0)
(1.00384 -0.00055971 0)
(1.00474 0.00195478 0)
(1.0046 -0.0011492 0)
(1.00516 0.00282046 0)
(1.0057 -0.00143553 0)
(1.00528 0.00289307 0)
(1.00617 -0.000328372 0)
(1.00552 0.00191867 0)
(1.00545 0.00179067 0)
(1.00516 0.00216524 0)
(1.00406 0.00405081 0)
(1.00333 0.00541477 0)
(1.00267 0.0080056 0)
(1.00095 -0.000979049 0)
(0.998825 -0.000941073 0)
(0.998629 0.000533096 0)
(1.00064 -9.78289e-05 0)
(1.00179 0.00213733 0)
(1.00236 9.33153e-05 0)
(1.00326 0.00157183 0)
(1.00384 -0.000524112 0)
(1.00471 0.00183724 0)
(1.00462 -0.00102492 0)
(1.00514 0.00258453 0)
(1.00571 -0.00118556 0)
(1.00532 0.00255296 0)
(1.00615 -1.9888e-05 0)
(1.00562 0.00166807 0)
(1.00548 0.00202579 0)
(1.00529 0.00224506 0)
(1.00425 0.00418742 0)
(1.00357 0.00569534 0)
(1.00304 0.00805281 0)
(1.00094 -0.000956397 0)
(0.998852 -0.0009536 0)
(0.998664 0.000532594 0)
(1.00068 -0.000135016 0)
(1.00182 0.00206936 0)
(1.00236 8.4795e-05 0)
(1.00325 0.00149228 0)
(1.00385 -0.0004748 0)
(1.00469 0.00170251 0)
(1.00464 -0.000888776 0)
(1.00512 0.00233717 0)
(1.0057 -0.000938775 0)
(1.00535 0.00222928 0)
(1.00611 0.000255046 0)
(1.00571 0.00147521 0)
(1.00551 0.00220294 0)
(1.00541 0.0023767 0)
(1.00446 0.00430308 0)
(1.00382 0.00595819 0)
(1.00339 0.00811614 0)
(1.00093 -0.000933681 0)
(0.998884 -0.000964564 0)
(0.998699 0.000528834 0)
(1.00073 -0.000171044 0)
(1.00184 0.00199205 0)
(1.00235 8.42693e-05 0)
(1.00324 0.00139827 0)
(1.00385 -0.000412696 0)
(1.00467 0.00155408 0)
(1.00465 -0.000747455 0)
(1.00511 0.00208775 0)
(1.00569 -0.000707092 0)
(1.00539 0.00193293 0)
(1.00608 0.000491701 0)
(1.00579 0.00133341 0)
(1.00556 0.00233178 0)
(1.00553 0.00254082 0)
(1.00467 0.00441966 0)
(1.00407 0.00620194 0)
(1.00373 0.00820473 0)
(1.00091 -0.000910985 0)
(0.998919 -0.000972644 0)
(0.998734 0.000520874 0)
(1.00077 -0.000202503 0)
(1.00186 0.00190195 0)
(1.00234 9.38027e-05 0)
(1.00323 0.00129059 0)
(1.00385 -0.000341682 0)
(1.00465 0.00139668 0)
(1.00466 -0.000608487 0)
(1.00509 0.00184681 0)
(1.00568 -0.000502357 0)
(1.00542 0.00166766 0)
(1.00605 0.000679057 0)
(1.00588 0.00123116 0)
(1.00562 0.00242477 0)
(1.00565 0.00271567 0)
(1.0049 0.00454656 0)
(1.00434 0.00642784 0)
(1.00405 0.00832225 0)
(1.0009 -0.000888807 0)
(0.998956 -0.000975066 0)
(0.998768 0.000504848 0)
(1.00081 -0.00022567 0)
(1.00187 0.00179616 0)
(1.00233 0.000112387 0)
(1.00322 0.0011688 0)
(1.00385 -0.000263441 0)
(1.00464 0.0012318 0)
(1.00467 -0.000473468 0)
(1.00509 0.00161618 0)
(1.00567 -0.000323186 0)
(1.00546 0.00143059 0)
(1.00602 0.000820888 0)
(1.00596 0.00116237 0)
(1.0057 0.00248453 0)
(1.00578 0.00288844 0)
(1.00515 0.00467521 0)
(1.00461 0.00663914 0)
(1.00437 0.00846816 0)
(1.00088 -0.000870231 0)
(0.998997 -0.000967427 0)
(0.998802 0.000475162 0)
(1.00085 -0.000236626 0)
(1.00189 0.00167209 0)
(1.00232 0.000149589 0)
(1.00321 0.00102864 0)
(1.00385 -0.000172641 0)
(1.00462 0.001062 0)
(1.00468 -0.000342067 0)
(1.00508 0.00140494 0)
(1.00565 -0.000178555 0)
(1.0055 0.00124863 0)
(1.006 0.000902981 0)
(1.00605 0.0011452 0)
(1.0058 0.00249354 0)
(1.00592 0.00306848 0)
(1.00541 0.00476363 0)
(1.0049 0.00684566 0)
(1.00468 0.00863841 0)
(1.00086 -0.000846868 0)
(0.99904 -0.000964532 0)
(0.998833 0.000449291 0)
(1.0009 -0.000259345 0)
(1.00191 0.00155512 0)
(1.00231 0.000176298 0)
(1.0032 0.000909589 0)
(1.00385 -0.000113331 0)
(1.0046 0.000936691 0)
(1.00468 -0.000262848 0)
(1.00507 0.00126485 0)
(1.00564 -0.000113798 0)
(1.00554 0.00116054 0)
(1.00599 0.000902714 0)
(1.00613 0.00120315 0)
(1.00591 0.00242412 0)
(1.00607 0.0032654 0)
(1.00569 0.00474305 0)
(1.00521 0.00702098 0)
(1.00499 0.00879135 0)
(1.00084 -0.000828686 0)
(0.999083 -0.000947932 0)
(0.998866 0.000400631 0)
(1.00094 -0.000260091 0)
(1.00193 0.00140193 0)
(1.0023 0.000226011 0)
(1.00319 0.000758163 0)
(1.00384 -3.21261e-05 0)
(1.00459 0.00077657 0)
(1.00469 -0.000165598 0)
(1.00505 0.00107878 0)
(1.00563 -1.50907e-06 0)
(1.00557 0.000962685 0)
(1.00599 0.000997041 0)
(1.00621 0.00113918 0)
(1.00604 0.00245293 0)
(1.00623 0.00330253 0)
(1.00597 0.00478764 0)
(1.00555 0.00695473 0)
(1.0053 0.00889236 0)
(1.00081 -0.000814656 0)
(0.999126 -0.000918198 0)
(0.998899 0.000331562 0)
(1.00098 -0.000246407 0)
(1.00195 0.00123383 0)
(1.00229 0.000279365 0)
(1.00318 0.000606293 0)
(1.00384 4.03514e-05 0)
(1.00457 0.000629947 0)
(1.00469 -8.72843e-05 0)
(1.00505 0.000893099 0)
(1.00561 0.000110379 0)
(1.00561 0.000755672 0)
(1.00599 0.00110147 0)
(1.00629 0.00107607 0)
(1.00618 0.00252279 0)
(1.0064 0.00334664 0)
(1.00626 0.00488981 0)
(1.0059 0.00687431 0)
(1.00567 0.00899476 0)
(1.00079 -0.000791805 0)
(0.999172 -0.000892797 0)
(0.998928 0.000268894 0)
(1.00102 -0.000254246 0)
(1.00197 0.00109054 0)
(1.00228 0.000301091 0)
(1.00316 0.000507281 0)
(1.00384 5.47077e-05 0)
(1.00455 0.000558916 0)
(1.00469 -7.5122e-05 0)
(1.00503 0.000797411 0)
(1.0056 0.000126037 0)
(1.00565 0.000708532 0)
(1.006 0.00108755 0)
(1.00637 0.0012098 0)
(1.00634 0.00253746 0)
(1.00657 0.00358057 0)
(1.00655 0.00496386 0)
(1.00627 0.00696398 0)
(1.00606 0.00903631 0)
(1.00076 -0.000781555 0)
(0.999216 -0.000841769 0)
(0.998955 0.000184242 0)
(1.00107 -0.000241879 0)
(1.00199 0.000922315 0)
(1.00227 0.000330491 0)
(1.00314 0.000398904 0)
(1.00383 7.48212e-05 0)
(1.00453 0.000475569 0)
(1.00469 -5.44145e-05 0)
(1.00502 0.000690237 0)
(1.00558 0.00018621 0)
(1.00568 0.000683217 0)
(1.00603 0.00115471 0)
(1.00646 0.00139363 0)
(1.00651 0.0026462 0)
(1.00676 0.003819 0)
(1.00684 0.00511782 0)
(1.00665 0.00704074 0)
(1.00645 0.00906508 0)
(1.00073 -0.000765437 0)
(0.999257 -0.000792963 0)
(0.998982 0.000102145 0)
(1.0011 -0.000247307 0)
(1.00201 0.000774473 0)
(1.00225 0.000318624 0)
(1.00312 0.000323014 0)
(1.00383 5.31864e-05 0)
(1.0045 0.000417642 0)
(1.00469 -4.86287e-05 0)
(1.00501 0.000613421 0)
(1.00557 0.000272385 0)
(1.00572 0.000731807 0)
(1.00607 0.00130111 0)
(1.00656 0.00159561 0)
(1.00669 0.00277671 0)
(1.00696 0.00400938 0)
(1.00712 0.00527178 0)
(1.00704 0.00706538 0)
(1.00684 0.00901148 0)
(1.0007 -0.000750827 0)
(0.999295 -0.000737474 0)
(0.999007 2.05831e-05 0)
(1.00114 -0.000268118 0)
(1.00203 0.000640297 0)
(1.00224 0.00029116 0)
(1.0031 0.000257265 0)
(1.00382 3.07742e-05 0)
(1.00448 0.000355219 0)
(1.00468 2.77312e-06 0)
(1.00501 0.000593004 0)
(1.00557 0.000391207 0)
(1.00577 0.000836863 0)
(1.00611 0.00145983 0)
(1.00665 0.00177552 0)
(1.00688 0.00286992 0)
(1.00717 0.00413523 0)
(1.00741 0.0053997 0)
(1.00741 0.00706091 0)
(1.00724 0.00891017 0)
(1.00067 -0.000737122 0)
(0.99933 -0.000680431 0)
(0.999029 -4.73733e-05 0)
(1.00117 -0.000314033 0)
(1.00205 0.000526046 0)
(1.00222 0.000235438 0)
(1.00308 0.000203907 0)
(1.00381 1.73018e-05 0)
(1.00445 0.000303272 0)
(1.00468 9.57812e-05 0)
(1.005 0.000635786 0)
(1.00557 0.000534904 0)
(1.00582 0.000941471 0)
(1.00616 0.00159377 0)
(1.00674 0.00193223 0)
(1.00706 0.00294428 0)
(1.00739 0.00422583 0)
(1.00769 0.00551369 0)
(1.00778 0.00706062 0)
(1.00764 0.00879612 0)
(1.00064 -0.00071944 0)
(0.999361 -0.000634616 0)
(0.999047 -9.9429e-05 0)
(1.0012 -0.000390779 0)
(1.00206 0.00042408 0)
(1.00221 0.00016227 0)
(1.00305 0.000151004 0)
(1.0038 3.003e-05 0)
(1.00443 0.00029268 0)
(1.00468 0.000214795 0)
(1.005 0.000706763 0)
(1.00557 0.000670773 0)
(1.00587 0.00102417 0)
(1.00622 0.00170249 0)
(1.00684 0.00207863 0)
(1.00725 0.0030225 0)
(1.00763 0.0042953 0)
(1.00798 0.00560461 0)
(1.00813 0.00705669 0)
(1.00802 0.00866726 0)
(1.00062 -0.000699953 0)
(0.99939 -0.00059544 0)
(0.999058 -0.000131673 0)
(1.00122 -0.00049884 0)
(1.00208 0.000323837 0)
(1.00219 9.22548e-05 0)
(1.00303 9.30686e-05 0)
(1.00379 9.3168e-05 0)
(1.00442 0.000333369 0)
(1.00468 0.000337604 0)
(1.005 0.000793889 0)
(1.00556 0.000798192 0)
(1.00592 0.00109902 0)
(1.00628 0.00179221 0)
(1.00693 0.00222606 0)
(1.00744 0.0031077 0)
(1.00788 0.00434589 0)
(1.00827 0.00565733 0)
(1.00848 0.00703405 0)
(1.0084 0.00852195 0)
(1.00059 -0.000678826 0)
(0.999417 -0.000564662 0)
(0.999062 -0.000131486 0)
(1.00124 -0.000626366 0)
(1.00209 0.000220794 0)
(1.00217 3.75056e-05 0)
(1.00301 4.9846e-05 0)
(1.00378 0.000190676 0)
(1.0044 0.000404703 0)
(1.00468 0.00044444 0)
(1.005 0.000881234 0)
(1.00556 0.000919338 0)
(1.00597 0.00117566 0)
(1.00636 0.00187487 0)
(1.00703 0.00237758 0)
(1.00763 0.0031977 0)
(1.00813 0.0043736 0)
(1.00856 0.00566428 0)
(1.00882 0.00698299 0)
(1.00876 0.00836203 0)
(1.00056 -0.000650844 0)
(0.999444 -0.000556845 0)
(0.999059 -0.000100939 0)
(1.00125 -0.000759306 0)
(1.00211 0.000112555 0)
(1.00214 1.62515e-05 0)
(1.003 3.05872e-05 0)
(1.00377 0.000294523 0)
(1.00439 0.000495112 0)
(1.00468 0.000534505 0)
(1.005 0.000960027 0)
(1.00555 0.00104195 0)
(1.00602 0.00125665 0)
(1.00644 0.00195218 0)
(1.00713 0.00252351 0)
(1.00781 0.00329267 0)
(1.00839 0.00438488 0)
(1.00886 0.00563273 0)
(1.00916 0.00690273 0)
(1.00911 0.00819095 0)
(1.00053 -0.000618971 0)
(0.999471 -0.000567734 0)
(0.999049 -4.60795e-05 0)
(1.00126 -0.000877039 0)
(1.00214 -6.2022e-06 0)
(1.00213 3.89305e-05 0)
(1.00299 2.46817e-05 0)
(1.00377 0.000384891 0)
(1.00437 0.000595016 0)
(1.00468 0.000612476 0)
(1.00501 0.00102608 0)
(1.00554 0.00116721 0)
(1.00606 0.00134685 0)
(1.00653 0.00201738 0)
(1.00724 0.00264865 0)
(1.00798 0.00338777 0)
(1.00863 0.00438998 0)
(1.00916 0.00557286 0)
(1.00949 0.00679166 0)
(1.00945 0.00800573 0)
(1.00049 -0.000584146 0)
(0.999501 -0.000599302 0)
(0.999036 3.37851e-05 0)
(1.00126 -0.000954224 0)
(1.00217 -0.000128107 0)
(1.00211 9.53539e-05 0)
(1.00299 2.83216e-05 0)
(1.00378 0.000452467 0)
(1.00435 0.000698418 0)
(1.00467 0.000690247 0)
(1.00501 0.00108098 0)
(1.00554 0.00129134 0)
(1.00611 0.00145443 0)
(1.00663 0.0020726 0)
(1.00736 0.00274514 0)
(1.00815 0.00347812 0)
(1.00887 0.00440214 0)
(1.00945 0.00550273 0)
(1.00982 0.00665635 0)
(1.00979 0.00780277 0)
(1.00046 -0.000543117 0)
(0.999535 -0.000656439 0)
(0.999021 0.000122563 0)
(1.00125 -0.000980976 0)
(1.00221 -0.00024546 0)
(1.0021 0.000158563 0)
(1.00298 4.75421e-05 0)
(1.00379 0.000494703 0)
(1.00433 0.000802719 0)
(1.00467 0.000779153 0)
(1.00503 0.00113035 0)
(1.00554 0.00140879 0)
(1.00615 0.00157479 0)
(1.00673 0.00212458 0)
(1.00749 0.00281143 0)
(1.00832 0.00355772 0)
(1.00911 0.00442619 0)
(1.00974 0.00543916 0)
(1.01014 0.00650999 0)
(1.01012 0.0075838 0)
(1.00043 -0.000496617 0)
(0.999575 -0.000735965 0)
(0.999009 0.000206617 0)
(1.00123 -0.000956452 0)
(1.00226 -0.000356281 0)
(1.0021 0.000222979 0)
(1.00297 9.09303e-05 0)
(1.00381 0.000518954 0)
(1.00432 0.000899991 0)
(1.00466 0.000882475 0)
(1.00505 0.00117701 0)
(1.00555 0.00151369 0)
(1.00619 0.00169697 0)
(1.00683 0.00217949 0)
(1.00763 0.0028528 0)
(1.0085 0.00361697 0)
(1.00933 0.00444933 0)
(1.01002 0.00538118 0)
(1.01046 0.00635829 0)
(1.01044 0.00735046 0)
(1.0004 -0.000446864 0)
(0.99962 -0.000825898 0)
(0.999005 0.000275278 0)
(1.0012 -0.000886585 0)
(1.00231 -0.000447953 0)
(1.00211 0.000292406 0)
(1.00297 0.000159075 0)
(1.00384 0.000536881 0)
(1.00431 0.000985292 0)
(1.00464 0.000996643 0)
(1.00507 0.0012271 0)
(1.00557 0.00160434 0)
(1.00622 0.00182069 0)
(1.00692 0.00224542 0)
(1.00778 0.00288141 0)
(1.00869 0.00364989 0)
(1.00956 0.00445614 0)
(1.01028 0.00531949 0)
(1.01076 0.00620213 0)
(1.01076 0.00710474 0)
(1.00036 -0.000397442 0)
(0.999671 -0.000912912 0)
(0.999011 0.000321832 0)
(1.00116 -0.000779567 0)
(1.00236 -0.000510424 0)
(1.00213 0.000364382 0)
(1.00296 0.000251462 0)
(1.00387 0.000555252 0)
(1.00432 0.00106122 0)
(1.00463 0.00111546 0)
(1.0051 0.0012836 0)
(1.0056 0.00167996 0)
(1.00627 0.00194416 0)
(1.00702 0.00232468 0)
(1.00793 0.00290309 0)
(1.00888 0.00365275 0)
(1.00979 0.00443678 0)
(1.01054 0.00524672 0)
(1.01105 0.00604363 0)
(1.01106 0.00685311 0)
(1.00033 -0.000348377 0)
(0.999726 -0.000994039 0)
(0.99903 0.000336602 0)
(1.00112 -0.000648972 0)
(1.00242 -0.000539903 0)
(1.00217 0.000440166 0)
(1.00295 0.000371676 0)
(1.0039 0.000578076 0)
(1.00434 0.00112636 0)
(1.00462 0.00123736 0)
(1.00512 0.00134616 0)
(1.00565 0.00174093 0)
(1.00632 0.00206024 0)
(1.00711 0.00241437 0)
(1.00809 0.00292002 0)
(1.00908 0.0036247 0)
(1.01002 0.00438507 0)
(1.01079 0.00515615 0)
(1.01132 0.0058825 0)
(1.01134 0.00660176 0)
(1.0003 -0.000297106 0)
(0.999785 -0.0010686 0)
(0.999064 0.000321044 0)
(1.00109 -0.000503806 0)
(1.00249 -0.000538679 0)
(1.00222 0.000516698 0)
(1.00293 0.000515423 0)
(1.00394 0.000612522 0)
(1.00437 0.00117677 0)
(1.00462 0.00136249 0)
(1.00514 0.00141862 0)
(1.0057 0.00178629 0)
(1.00638 0.00215947 0)
(1.00719 0.00251035 0)
(1.00823 0.0029405 0)
(1.00928 0.00357542 0)
(1.01026 0.00430171 0)
(1.01104 0.00504311 0)
(1.01158 0.00571554 0)
(1.01161 0.00635367 0)
(1.00026 -0.000246147 0)
(0.999846 -0.00112921 0)
(0.999114 0.000292264 0)
(1.00105 -0.000348983 0)
(1.00255 -0.000508367 0)
(1.00228 0.000588043 0)
(1.00292 0.000677549 0)
(1.00397 0.000669554 0)
(1.00442 0.0012133 0)
(1.00462 0.00148635 0)
(1.00516 0.00150744 0)
(1.00577 0.0018191 0)
(1.00645 0.00223299 0)
(1.00728 0.00260554 0)
(1.00836 0.00297515 0)
(1.00948 0.00352316 0)
(1.0105 0.0041948 0)
(1.0113 0.00490509 0)
(1.01184 0.00553703 0)
(1.01186 0.00610751 0)
(1.00023 -0.000196932 0)
(0.999907 -0.00116514 0)
(0.999181 0.000254983 0)
(1.00102 -0.000186156 0)
(1.00262 -0.000450543 0)
(1.00236 0.000650734 0)
(1.00292 0.000849324 0)
(1.00399 0.000755111 0)
(1.00448 0.0012439 0)
(1.00463 0.00160248 0)
(1.00517 0.00161672 0)
(1.00584 0.00185006 0)
(1.00654 0.00227588 0)
(1.00737 0.00268524 0)
(1.00849 0.00302213 0)
(1.00967 0.00347995 0)
(1.01074 0.00407349 0)
(1.01155 0.0047398 0)
(1.01208 0.00533814 0)
(1.0121 0.00585594 0)
(1.0002 -0.000149731 0)
(0.999968 -0.00116873 0)
(0.999264 0.000214717 0)
(1.001 -1.53028e-05 0)
(1.00268 -0.000371909 0)
(1.00246 0.000700322 0)
(1.00291 0.00101976 0)
(1.00401 0.000863718 0)
(1.00454 0.00127483 0)
(1.00466 0.00170474 0)
(1.00518 0.00174122 0)
(1.0059 0.00189109 0)
(1.00665 0.00228936 0)
(1.00747 0.00273489 0)
(1.0086 0.00306657 0)
(1.00983 0.00344666 0)
(1.01096 0.00394749 0)
(1.01181 0.00455179 0)
(1.01233 0.00511571 0)
(1.01232 0.0055941 0)
(1.00017 -0.000107799 0)
(1.00003 -0.00114104 0)
(0.999361 0.000183623 0)
(1.00098 0.000153014 0)
(1.00274 -0.000278699 0)
(1.00257 0.000738229 0)
(1.00292 0.00118095 0)
(1.00401 0.000986406 0)
(1.00461 0.00130739 0)
(1.00469 0.00179153 0)
(1.00519 0.00187147 0)
(1.00595 0.00195046 0)
(1.00676 0.00228474 0)
(1.00759 0.00274919 0)
(1.00871 0.00309319 0)
(1.00998 0.00341668 0)
(1.01117 0.00382298 0)
(1.01205 0.00434826 0)
(1.01257 0.00486879 0)
(1.01253 0.00531501 0)
(1.00014 -6.26607e-05 0)
(1.00008 -0.00109591 0)
(0.999472 0.000159667 0)
(1.00097 0.000314388 0)
(1.00279 -0.00016423 0)
(1.00269 0.000775714 0)
(1.00293 0.00133367 0)
(1.00401 0.00112578 0)
(1.00467 0.00134722 0)
(1.00474 0.00186755 0)
(1.00519 0.00200316 0)
(1.00598 0.00202921 0)
(1.00686 0.00227708 0)
(1.00771 0.00272854 0)
(1.00882 0.00309121 0)
(1.0101 0.0033807 0)
(1.01135 0.00370184 0)
(1.01228 0.00413771 0)
(1.01281 0.00460135 0)
(1.01274 0.00501511 0)
(1.00011 -1.78347e-05 0)
(1.00014 -0.00102573 0)
(0.999593 0.000144165 0)
(1.00097 0.000471096 0)
(1.00283 -3.18663e-05 0)
(1.00281 0.000810631 0)
(1.00295 0.0014735 0)
(1.00399 0.00128302 0)
(1.00474 0.00139734 0)
(1.00481 0.00193135 0)
(1.00519 0.00213282 0)
(1.006 0.00212341 0)
(1.00695 0.00227722 0)
(1.00784 0.00267969 0)
(1.00894 0.00305515 0)
(1.01021 0.00333002 0)
(1.0115 0.00358236 0)
(1.01248 0.00392719 0)
(1.01303 0.00432049 0)
(1.01294 0.00469463 0)
(1.00009 2.00023e-05 0)
(1.00019 -0.00091923 0)
(0.999723 0.00014554 0)
(1.00097 0.000615677 0)
(1.00286 0.00011672 0)
(1.00295 0.000846977 0)
(1.00299 0.0015978 0)
(1.00396 0.0014561 0)
(1.00479 0.00145919 0)
(1.00489 0.00197641 0)
(1.0052 0.00225422 0)
(1.006 0.00223136 0)
(1.00702 0.00229131 0)
(1.00796 0.00261492 0)
(1.00906 0.00298237 0)
(1.01031 0.00325413 0)
(1.01162 0.00345678 0)
(1.01264 0.00371769 0)
(1.01323 0.00403204 0)
(1.01313 0.00435626 0)
(1.00007 5.65349e-05 0)
(1.00023 -0.000788936 0)
(0.999855 0.000165485 0)
(1.00099 0.00075174 0)
(1.00288 0.000285096 0)
(1.00308 0.000897306 0)
(1.00304 0.00171105 0)
(1.00392 0.00164411 0)
(1.00482 0.00154114 0)
(1.00497 0.00200337 0)
(1.00522 0.00235558 0)
(1.00597 0.00235179 0)
(1.00705 0.00232217 0)
(1.00807 0.00254863 0)
(1.00917 0.0028754 0)
(1.0104 0.00314401 0)
(1.01171 0.00331428 0)
(1.01277 0.00350513 0)
(1.01339 0.00373947 0)
(1.0133 0.00400473 0)
(1.00005 9.2931e-05 0)
(1.00026 -0.000649061 0)
(0.999988 0.00020122 0)
(1.00101 0.000882231 0)
(1.00289 0.000463819 0)
(1.0032 0.000961576 0)
(1.0031 0.00181714 0)
(1.00387 0.00184416 0)
(1.00482 0.00165732 0)
(1.00505 0.00202663 0)
(1.00525 0.0024299 0)
(1.00594 0.00247893 0)
(1.00705 0.00237558 0)
(1.00814 0.00249278 0)
(1.00927 0.00274721 0)
(1.01049 0.00299906 0)
(1.01178 0.00314656 0)
(1.01286 0.00328267 0)
(1.01351 0.00344215 0)
(1.01343 0.00364229 0)
(1.00003 0.000130733 0)
(1.00029 -0.000509922 0)
(1.00012 0.000252944 0)
(1.00103 0.00101022 0)
(1.00289 0.00065662 0)
(1.00332 0.00103902 0)
(1.00317 0.00192273 0)
(1.00382 0.00204788 0)
(1.0048 0.00180978 0)
(1.00512 0.00205482 0)
(1.00529 0.00247358 0)
(1.00589 0.00259085 0)
(1.007 0.00245155 0)
(1.00817 0.00245252 0)
(1.00935 0.00261446 0)
(1.01055 0.00282354 0)
(1.01182 0.00294894 0)
(1.01291 0.00304141 0)
(1.01359 0.00313519 0)
(1.01353 0.00326851 0)
(1.00002 0.000167947 0)
(1.00032 -0.000366715 0)
(1.00025 0.000322881 0)
(1.00107 0.0011412 0)
(1.00287 0.000865979 0)
(1.00343 0.00113161 0)
(1.00326 0.00202419 0)
(1.00376 0.00225439 0)
(1.00475 0.00199324 0)
(1.00517 0.00210106 0)
(1.00533 0.0024926 0)
(1.00584 0.00267078 0)
(1.00692 0.00253864 0)
(1.00814 0.00243368 0)
(1.00938 0.00248871 0)
(1.01059 0.00262689 0)
(1.01185 0.00272114 0)
(1.01292 0.00277327 0)
(1.01362 0.00280992 0)
(1.01358 0.00287921 0)
(1 0.000197973 0)
(1.00034 -0.000206519 0)
(1.00038 0.000403598 0)
(1.00111 0.00127905 0)
(1.00285 0.0010888 0)
(1.00352 0.00125504 0)
(1.00336 0.00211363 0)
(1.00371 0.00246629 0)
(1.00466 0.00220622 0)
(1.00518 0.00218591 0)
(1.00538 0.00249994 0)
(1.0058 0.0027191 0)
(1.00681 0.00261508 0)
(1.00806 0.00243699 0)
(1.00936 0.00237334 0)
(1.0106 0.00242392 0)
(1.01184 0.00246653 0)
(1.0129 0.0024788 0)
(1.01361 0.00246363 0)
(1.01358 0.00247405 0)
(0.999995 0.000228777 0)
(1.00035 -4.19593e-05 0)
(1.0005 0.000495436 0)
(1.00116 0.001417 0)
(1.00281 0.00132784 0)
(1.0036 0.00141112 0)
(1.00346 0.00220057 0)
(1.00367 0.00266604 0)
(1.00455 0.00244905 0)
(1.00515 0.00231951 0)
(1.0054 0.00251983 0)
(1.00577 0.00274398 0)
(1.00669 0.00267107 0)
(1.00792 0.0024518 0)
(1.00927 0.002274 0)
(1.01055 0.0022222 0)
(1.01179 0.00219168 0)
(1.01283 0.00215582 0)
(1.01354 0.00209277 0)
(1.01352 0.00204819 0)
(0.99999 0.000256616 0)
(1.00035 0.000132928 0)
(1.00061 0.000607319 0)
(1.00122 0.00155091 0)
(1.00277 0.00158465 0)
(1.00365 0.00160137 0)
(1.00357 0.002303 0)
(1.00365 0.00284936 0)
(1.00442 0.0027119 0)
(1.00507 0.00250192 0)
(1.0054 0.00257635 0)
(1.00572 0.00275855 0)
(1.00654 0.00270715 0)
(1.00773 0.00246424 0)
(1.00911 0.00219212 0)
(1.01043 0.00202568 0)
(1.01168 0.00190644 0)
(1.01272 0.00180779 0)
(1.01342 0.0016948 0)
(1.01341 0.00159759 0)
(0.999987 0.000282146 0)
(1.00035 0.000308886 0)
(1.00071 0.000736742 0)
(1.00128 0.00168882 0)
(1.00272 0.00185312 0)
(1.00367 0.0018363 0)
(1.00368 0.00243019 0)
(1.00364 0.00302317 0)
(1.00428 0.00298081 0)
(1.00494 0.00272715 0)
(1.00534 0.0026789 0)
(1.00565 0.00278503 0)
(1.00638 0.00272891 0)
(1.0075 0.00247197 0)
(1.00888 0.00212295 0)
(1.01022 0.00184296 0)
(1.0115 0.00161975 0)
(1.01254 0.00144419 0)
(1.01324 0.00127153 0)
(1.01324 0.00111933 0)
(0.999987 0.000310779 0)
(1.00035 0.000478304 0)
(1.0008 0.000878276 0)
(1.00136 0.00183317 0)
(1.00268 0.00212884 0)
(1.00367 0.00210587 0)
(1.00376 0.00259141 0)
(1.00364 0.00319472 0)
(1.00413 0.00324796 0)
(1.00477 0.00298885 0)
(1.00523 0.00283105 0)
(1.00555 0.00283785 0)
(1.0062 0.00274783 0)
(1.00722 0.00246937 0)
(1.00857 0.00205848 0)
(1.00993 0.00166732 0)
(1.01123 0.00133076 0)
(1.01229 0.0010589 0)
(1.01299 0.000813332 0)
(1.013 0.00060127 0)
(0.999989 0.000336578 0)
(1.00034 0.000648992 0)
(1.00088 0.00104893 0)
(1.00143 0.00197513 0)
(1.00263 0.00240821 0)
(1.00363 0.00240509 0)
(1.00382 0.00278803 0)
(1.00365 0.0033772 0)
(1.00399 0.00351543 0)
(1.00456 0.00328037 0)
(1.00506 0.00303361 0)
(1.00539 0.00293051 0)
(1.00597 0.00277825 0)
(1.00689 0.00246026 0)
(1.00818 0.00199383 0)
(1.00953 0.00149096 0)
(1.01086 0.00103651 0)
(1.01193 0.000646026 0)
(1.01265 0.000308779 0)
(1.01267 2.65624e-05 0)
(0.999991 0.000365449 0)
(1.00032 0.000819277 0)
(1.00094 0.00123736 0)
(1.00151 0.00212936 0)
(1.0026 0.00267526 0)
(1.00358 0.00273612 0)
(1.00385 0.00302675 0)
(1.00366 0.00357357 0)
(1.00385 0.00378958 0)
(1.00432 0.00359581 0)
(1.00482 0.00329248 0)
(1.00517 0.00307885 0)
(1.00569 0.00284167 0)
(1.00651 0.00246921 0)
(1.0077 0.00192974 0)
(1.00902 0.00132479 0)
(1.01036 0.000729424 0)