/*--------------------------------*- C++ -*----------------------------------*\
| =========                 |                                                 |
| \\      /  F ield         | OpenFOAM: The Open Source CFD Toolbox           |
|  \\    /   O peration     | Version:  v2012                                 |
|   \\  /    A nd           | Website:  www.openfoam.com                      |
|    \\/     M anipulation  |                                                 |
\*---------------------------------------------------------------------------*/
FoamFile
{
    version     2.0;
    format      ascii;
    class       surfaceScalarField;
    location    "0.8";
    object      phi;
}
// * * * * * * * * * * * * * * * * * * * * * * * * * * * * * * * * * * * * * //

dimensions      [0 3 -1 0 0 0 0];
oriented        oriented;


internalField   nonuniform List<scalar> 
34900
(
1.17538e-06
-8.39819e-08
1.17236e-06
1.45907e-07
1.1746e-06
1.961e-07
1.16225e-06
-9.70067e-08
1.16544e-06
1.11122e-07
1.15214e-06
-2.35933e-07
1.16152e-06
2.61136e-07
1.14426e-06
-2.16058e-07
1.15516e-06
1.43919e-07
1.14175e-06
-4.89261e-08
1.14944e-06
-1.56283e-08
1.14106e-06
-7.64065e-09
1.14876e-06
8.09427e-09
1.13883e-06
-3.48915e-08
1.1471e-06
8.76815e-09
1.13565e-06
-2.30161e-08
1.14416e-06
2.32189e-08
1.13069e-06
-1.87449e-08
1.13457e-06
5.60538e-08
7.7798e-09
1.09805e-06
1.23044e-06
-9.01584e-08
1.23004e-06
1.46303e-07
1.22984e-06
1.96305e-07
1.2189e-06
-8.60699e-08
1.2191e-06
1.10919e-07
1.20766e-06
-2.24486e-07
1.21287e-06
2.55925e-07
1.19936e-06
-2.02548e-07
1.20499e-06
1.38286e-07
1.19879e-06
-4.27218e-08
1.20036e-06
-1.72033e-08
1.20048e-06
-7.76269e-09
1.20005e-06
8.52496e-09
1.20096e-06
-3.57959e-08
1.19682e-06
1.29106e-08
1.20147e-06
-2.76674e-08
1.19095e-06
3.3734e-08
1.20024e-06
-2.80291e-08
1.17677e-06
7.95231e-08
3.02214e-09
1.18152e-06
1.28657e-06
-9.39479e-08
1.29087e-06
1.42004e-07
1.28678e-06
2.00397e-07
1.27954e-06
-7.88307e-08
1.27538e-06
1.15083e-07
1.2673e-06
-2.16411e-07
1.26752e-06
2.55709e-07
1.25981e-06
-1.94838e-07
1.25888e-06
1.39212e-07
1.26097e-06
-4.48162e-08
1.25581e-06
-1.20422e-08
1.26297e-06
-1.49156e-08
1.25681e-06
1.46839e-08
1.26371e-06
-4.27029e-08
1.25528e-06
2.13425e-08
1.26272e-06
-3.51042e-08
1.25299e-06
4.34665e-08
1.25761e-06
-3.26482e-08
1.24655e-06
9.05764e-08
1.5252e-08
1.23432e-06
1.34415e-06
-9.39953e-08
1.35306e-06
1.33094e-07
1.34597e-06
2.07488e-07
1.34295e-06
-7.58064e-08
1.33514e-06
1.2289e-07
1.33042e-06
-2.11692e-07
1.32744e-06
2.5869e-07
1.32465e-06
-1.92049e-07
1.32003e-06
1.43836e-07
1.32637e-06
-5.11617e-08
1.31917e-06
-4.83882e-09
1.32678e-06
-2.25231e-08
1.32171e-06
1.97498e-08
1.32702e-06
-4.80155e-08
1.32202e-06
2.63476e-08
1.3254e-06
-3.84869e-08
1.32136e-06
4.75058e-08
1.32009e-06
-3.13793e-08
1.31588e-06
9.47925e-08
3.1307e-08
1.29982e-06
1.40441e-06
-9.00503e-08
1.41592e-06
1.2158e-07
1.40814e-06
2.1527e-07
1.40816e-06
-7.5828e-08
1.39915e-06
1.31898e-07
1.39624e-06
-2.08778e-07
1.39309e-06
2.61841e-07
1.3925e-06
-1.91456e-07
1.38826e-06
1.48072e-07
1.39444e-06
-5.73455e-08
1.38916e-06
4.49566e-10
1.39414e-06
-2.75068e-08
1.39209e-06
2.18025e-08
1.39472e-06
-5.06494e-08
1.39263e-06
2.8439e-08
1.39351e-06
-3.93711e-08
1.39173e-06
4.92895e-08
1.38824e-06
-2.78868e-08
1.38583e-06
9.7195e-08
4.7516e-08
1.36963e-06
1.46881e-06
-8.31841e-08
1.4802e-06
1.10192e-07
1.4742e-06
2.21265e-07
1.47543e-06
-7.70495e-08
1.46771e-06
1.39612e-07
1.46501e-06
-2.06074e-07
1.46368e-06
2.6317e-07
1.46318e-06
-1.90958e-07
1.46131e-06
1.49946e-07
1.46563e-06
-6.1667e-08
1.46286e-06
3.21672e-09
1.46571e-06
-3.03542e-08
1.46539e-06
2.21172e-08
1.46661e-06
-5.18627e-08
1.46565e-06
2.93928e-08
1.46542e-06
-3.91415e-08
1.46447e-06
5.02384e-08
1.45951e-06
-2.29193e-08
1.45842e-06
9.82775e-08
6.3889e-08
1.44205e-06
1.53828e-06
-7.52505e-08
1.54751e-06
1.00969e-07
1.54465e-06
2.24125e-07
1.54572e-06
-7.81198e-08
1.5405e-06
1.4483e-07
1.53735e-06
-2.02923e-07
1.53812e-06
2.62397e-07
1.53698e-06
-1.89814e-07
1.53734e-06
1.49579e-07
1.53999e-06
-6.43186e-08
1.53885e-06
4.35662e-09
1.54066e-06
-3.21609e-08
1.541e-06
2.17805e-08
1.54148e-06
-5.23423e-08
1.54107e-06
2.98029e-08
1.53993e-06
-3.80075e-08
1.53973e-06
5.04414e-08
1.53327e-06
-1.64546e-08
1.53338e-06
9.81629e-08
8.00823e-08
1.51719e-06
1.61281e-06
-6.79329e-08
1.61925e-06
9.45315e-08
1.61936e-06
2.24014e-07
1.61984e-06
-7.85979e-08
1.61697e-06
1.47703e-07
1.61353e-06
-1.99488e-07
1.61582e-06
2.60111e-07
1.61403e-06
-1.88024e-07
1.61589e-06
1.47717e-07
1.61741e-06
-6.58439e-08
1.61716e-06
4.61464e-09
1.61844e-06
-3.34438e-08
1.6191e-06
2.11185e-08
1.61897e-06
-5.22096e-08
1.61906e-06
2.97113e-08
1.61695e-06
-3.58996e-08
1.61753e-06
4.98619e-08
1.60966e-06
-8.58485e-09
1.61064e-06
9.71883e-08
9.55549e-08
1.59516e-06
1.69173e-06
-6.20857e-08
1.69594e-06
9.03161e-08
1.69798e-06
2.21972e-07
1.69802e-06
-7.86323e-08
1.69675e-06
1.48969e-07
1.69341e-06
-1.96147e-07
1.69664e-06
2.56879e-07
1.69432e-06
-1.85701e-07
1.69714e-06
1.44894e-07
1.69784e-06
-6.6542e-08
1.69815e-06
4.30684e-09
1.69899e-06
-3.42902e-08
1.69999e-06
2.01219e-08
1.6992e-06
-5.14234e-08
1.69987e-06
2.90437e-08
1.69673e-06
-3.27609e-08
1.69808e-06
4.85179e-08
1.68902e-06
4.70861e-10
1.69045e-06
9.5762e-08
1.09796e-07
1.67621e-06
1.77437e-06
-5.77321e-08
1.77735e-06
8.73298e-08
1.78025e-06
2.19074e-07
1.7801e-06
-7.84842e-08
1.77977e-06
1.49302e-07
1.77672e-06
-1.93101e-07
1.78062e-06
2.52984e-07
1.77781e-06
-1.82888e-07
1.78134e-06
1.41357e-07
1.78131e-06
-6.65026e-08
1.78211e-06
3.50597e-09
1.78245e-06
-3.46362e-08
1.78388e-06
1.86906e-08
1.78238e-06
-4.99204e-08
1.78372e-06
2.77074e-08
1.77955e-06
-2.85969e-08
1.78157e-06
4.65003e-08
1.77167e-06
1.03724e-08
1.7731e-06
9.43296e-08
1.22356e-07
1.76054e-06
1.86049e-06
-5.44728e-08
1.86305e-06
8.47726e-08
1.86614e-06
2.15977e-07
1.86595e-06
-7.82937e-08
1.86615e-06
1.4911e-07
1.86337e-06
-1.90327e-07
1.86784e-06
2.48512e-07
1.86454e-06
-1.79585e-07
1.86871e-06
1.3719e-07
1.86794e-06
-6.57361e-08
1.86926e-06
2.18328e-09
1.86902e-06
-3.43883e-08
1.871e-06
1.67062e-08
1.86873e-06
-4.7654e-08
1.8708e-06
2.56395e-08
1.86571e-06
-2.35037e-08
1.86821e-06
4.39984e-08
1.85791e-06
2.06741e-08
1.85889e-06
9.33451e-08
1.32884e-07
1.84837e-06
1.95024e-06
-5.18767e-08
1.95278e-06
8.22365e-08
1.95583e-06
2.1293e-07
1.95561e-06
-7.80815e-08
1.95614e-06
1.48583e-07
1.9535e-06
-1.87683e-07
1.95853e-06
2.4348e-07
1.95472e-06
-1.75774e-07
1.9595e-06
1.32405e-07
1.958e-06
-6.42331e-08
1.95992e-06
2.67633e-10
1.95899e-06
-3.34598e-08
1.96163e-06
1.40645e-08
1.95859e-06
-4.46135e-08
1.96138e-06
2.28484e-08
1.95555e-06
-1.76771e-08
1.95825e-06
4.13024e-08
1.94804e-06
3.08841e-08
1.9482e-06
9.31867e-08
1.41212e-07
1.93987e-06
2.04396e-06
-4.96516e-08
2.04659e-06
7.96061e-08
2.04956e-06
2.09961e-07
2.0493e-06
-7.78187e-08
2.05009e-06
1.47795e-07
2.04741e-06
-1.85001e-07
2.05301e-06
2.37879e-07
2.04866e-06
-1.71428e-07
2.0541e-06
1.26969e-07
2.05184e-06
-6.19725e-08
2.05443e-06
-2.32907e-09
2.05276e-06
-3.17842e-08
2.05612e-06
1.06992e-08
2.05235e-06
-4.08412e-08
2.05575e-06
1.94454e-08
2.04949e-06
-1.14102e-08
2.052e-06
3.8787e-08
2.04235e-06
4.05355e-08
2.04144e-06
9.40941e-08
1.47396e-07
2.03526e-06
2.142e-06
-4.76455e-08
2.1447e-06
7.69009e-08
2.14765e-06
2.07011e-07
2.1473e-06
-7.74712e-08
2.14834e-06
1.4676e-07
2.14547e-06
-1.82138e-07
2.15167e-06
2.31687e-07
2.14674e-06
-1.665e-07
2.15289e-06
1.20821e-07
2.14984e-06
-5.89222e-08
2.1532e-06
-5.69339e-09
2.15075e-06
-2.93291e-08
2.15484e-06
6.6043e-09
2.15045e-06
-3.64525e-08
2.15424e-06
1.56529e-08
2.1479e-06
-5.06632e-09
2.14983e-06
3.68577e-08
2.14111e-06
4.9257e-08
2.13907e-06
9.6135e-08
1.51693e-07
2.13477e-06
2.24464e-06
-4.57921e-08
2.24736e-06
7.41789e-08
2.25036e-06
2.04012e-07
2.2499e-06
-7.70099e-08
2.2512e-06
1.45455e-07
2.24804e-06
-1.78974e-07
2.25487e-06
2.24857e-07
2.2493e-06
-1.60932e-07
2.25624e-06
1.13882e-07
2.25236e-06
-5.50471e-08
2.25656e-06
-9.89247e-09
2.25334e-06
-2.61105e-08
2.2581e-06
1.85096e-09
2.25329e-06
-3.16523e-08
2.25717e-06
1.17807e-08
2.25112e-06
9.82892e-10
2.25211e-06
3.58664e-08
2.24454e-06
5.68248e-08
2.24146e-06
9.92119e-08
1.54501e-07
2.23866e-06
2.35215e-06
-4.40658e-08
2.35482e-06
7.1503e-08
2.35795e-06
2.00892e-07
2.35734e-06
-7.64047e-08
2.35896e-06
1.43834e-07
2.35539e-06
-1.75404e-07
2.36292e-06
2.17328e-07
2.35664e-06
-1.54652e-07
2.36445e-06
1.06072e-07
2.35973e-06
-5.03253e-08
2.36479e-06
-1.49509e-08
2.36089e-06
-2.22134e-08
2.36614e-06
-3.39598e-09
2.36123e-06
-2.67449e-08
2.36481e-06
8.19626e-09
2.35938e-06
6.4117e-09
2.35921e-06
3.60374e-08
2.35284e-06
6.32008e-08
2.34897e-06
1.03077e-07
1.56279e-07
2.34719e-06
2.46479e-06
-4.24604e-08
2.46736e-06
6.89358e-08
2.47067e-06
1.9758e-07
2.46988e-06
-7.56157e-08
2.47188e-06
1.41831e-07
2.4678e-06
-1.71326e-07
2.47611e-06
2.09027e-07
2.46904e-06
-1.4759e-07
2.47779e-06
9.73244e-08
2.47223e-06
-4.47635e-08
2.47811e-06
-2.08337e-08
2.4737e-06
-1.78045e-08
2.47919e-06
-8.88223e-09
2.47455e-06
-2.2102e-08
2.47747e-06
5.27353e-09
2.47291e-06
1.09732e-08
2.47152e-06
3.74263e-08
2.46618e-06
6.85427e-08
2.46189e-06
1.07368e-07
1.57472e-07
2.46069e-06
2.58281e-06
-4.09808e-08
2.58521e-06
6.65403e-08
2.58879e-06
1.94005e-07
2.58776e-06
-7.45879e-08
2.59022e-06
1.39363e-07
2.58554e-06
-1.66638e-07
2.59469e-06
1.99874e-07
2.58679e-06
-1.39686e-07
2.59651e-06
8.76049e-08
2.59016e-06
-3.84155e-08
2.59675e-06
-2.74274e-08
2.59209e-06
-1.31438e-08
2.59748e-06
-1.4271e-08
2.5935e-06
-1.81241e-08
2.59544e-06
3.33323e-09
2.59188e-06
1.45377e-08
2.5894e-06
3.99029e-08
2.58478e-06
7.31622e-08
2.58046e-06
1.11692e-07
1.5845e-07
2.57948e-06
2.70649e-06
-3.96392e-08
2.70865e-06
6.43819e-08
2.71256e-06
1.90087e-07
2.71122e-06
-7.32491e-08
2.71425e-06
1.36338e-07
2.70885e-06
-1.61242e-07
2.71893e-06
1.89798e-07
2.71015e-06
-1.30904e-07
2.72083e-06
7.6926e-08
2.71381e-06
-3.1402e-08
2.72091e-06
-3.4527e-08
2.71635e-06
-8.57835e-09
2.72126e-06
-1.91816e-08
2.71831e-06
-1.51726e-08
2.71907e-06
2.57121e-09
2.71646e-06
1.71415e-08
2.7132e-06
4.31728e-08
2.70893e-06
7.74241e-08
2.70488e-06
1.15742e-07
1.59443e-07
2.70389e-06
2.83608e-06
-3.84526e-08
2.83793e-06
6.25307e-08
2.84228e-06
1.85738e-07
2.84055e-06
-7.15125e-08
2.84423e-06
1.32655e-07
2.83804e-06
-1.55048e-07
2.84909e-06
1.78744e-07
2.83943e-06
-1.21248e-07
2.85099e-06
6.53669e-08
2.84352e-06
-2.3931e-08
2.85082e-06
-4.18285e-08
2.84677e-06
-4.52778e-09
2.85082e-06
-2.32314e-08
2.84916e-06
-1.35055e-08
2.84872e-06
3.00675e-09
2.84687e-06
1.8993e-08
2.8432e-06
4.68441e-08
2.83899e-06
8.16337e-08
2.83534e-06
1.19392e-07
1.60514e-07
2.83427e-06
2.97188e-06
-3.74414e-08
2.97335e-06
6.10635e-08
2.97823e-06
1.80857e-07
2.976e-06
-6.92809e-08
2.98044e-06
1.28215e-07
2.97338e-06
-1.47984e-07
2.98543e-06
1.66691e-07
2.97496e-06
-1.10783e-07
2.98724e-06
5.3091e-08
2.97962e-06
-1.63057e-08
2.98673e-06
-4.89446e-08
2.98365e-06
-1.44598e-09
2.98651e-06
-2.60868e-08
2.98622e-06
-1.32223e-08
2.98477e-06
4.45506e-09
2.98332e-06
2.04425e-08
2.97965e-06
5.05163e-08
2.97532e-06
8.59649e-08
2.972e-06
1.22711e-07
1.61608e-07
2.97091e-06
3.11419e-06
-3.66272e-08
3.11519e-06
6.00652e-08
3.12071e-06
1.75335e-07
3.11789e-06
-6.64552e-08
3.12317e-06
1.22933e-07
3.1152e-06
-1.40011e-07
3.12821e-06
1.53673e-07
3.11709e-06
-9.96574e-08
3.12981e-06
4.03632e-08
3.12243e-06
-8.92446e-09
3.12894e-06
-5.54495e-08
3.12722e-06
2.69207e-10
3.12869e-06
-2.75513e-08
3.12969e-06
-1.42229e-08
3.12758e-06
6.56481e-09
3.12611e-06
2.19114e-08
3.12276e-06
5.38618e-08
3.11828e-06
9.04454e-08
3.1151e-06
1.25898e-07
1.62644e-07
3.11406e-06
3.26331e-06
-3.60314e-08
3.26375e-06
5.96283e-08
3.27003e-06
1.69059e-07
3.26652e-06
-6.2946e-08
3.2727e-06
1.1675e-07
3.26383e-06
-1.31143e-07
3.2777e-06
1.39803e-07
3.26616e-06
-8.81152e-08
3.27898e-06
2.75464e-08
3.2723e-06
-2.25059e-09
3.27778e-06
-6.09241e-08
3.2777e-06
3.43678e-10
3.27777e-06
-2.76186e-08
3.27976e-06
-1.62148e-08
3.27741e-06
8.91766e-09
3.27551e-06
2.3809e-08
3.27265e-06
5.67255e-08
3.26814e-06
9.49537e-08
3.26487e-06
1.29168e-07
1.63599e-07
3.26392e-06
3.41957e-06
-3.56742e-08
3.41935e-06
5.98501e-08
3.4265e-06
1.61916e-07
3.42224e-06
-5.86892e-08
3.42933e-06
1.09657e-07
3.41966e-06
-1.21467e-07
3.43417e-06
1.25286e-07
3.42256e-06
-7.65043e-08
3.43503e-06
1.50767e-08
3.42952e-06
3.25719e-09
3.43364e-06
-6.5045e-08
3.43526e-06
-1.27738e-09
3.43417e-06
-2.65236e-08
3.43667e-06
-1.87176e-08
3.43444e-06
1.11481e-08
3.43177e-06
2.64783e-08
3.42931e-06
5.91875e-08
3.42501e-06
9.92532e-08
3.42154e-06
1.32636e-07
1.64528e-07
3.42061e-06
3.58331e-06
-3.55732e-08
3.58233e-06
6.08277e-08
3.59044e-06
1.53809e-07
3.58541e-06
-5.36639e-08
3.59336e-06
1.01714e-07
3.58305e-06
-1.1116e-07
3.5979e-06
1.10433e-07
3.58665e-06
-6.52511e-08
3.59831e-06
3.41488e-09
3.59436e-06
7.21228e-09
3.59696e-06
-6.76435e-08
3.60009e-06
-4.41367e-09
3.59822e-06
-2.4651e-08
3.60063e-06
-2.11314e-08
3.59867e-06
1.3111e-08
3.59502e-06
3.01277e-08
3.59268e-06
6.15271e-08
3.58883e-06
1.031e-07
3.58526e-06
1.36211e-07
1.65499e-07
3.58429e-06
3.75487e-06
-3.57403e-08
3.75306e-06
6.26448e-08
3.76218e-06
1.44681e-07
3.75644e-06
-4.79187e-08
3.76507e-06
9.30794e-08
3.75443e-06
-1.00513e-07
3.76921e-06
9.565e-08
3.75878e-06
-5.48216e-08
3.76922e-06
-7.02437e-09
3.76704e-06
9.39348e-09
3.76816e-06
-6.87643e-08
3.7724e-06
-8.65795e-09
3.77014e-06
-2.23908e-08
3.77179e-06
-2.27742e-08
3.76997e-06
1.49294e-08
3.76533e-06
3.47668e-08
3.76276e-06
6.40969e-08
3.7595e-06
1.06354e-07
3.75614e-06
1.39575e-07
1.66495e-07
3.75514e-06
3.93463e-06
-3.61804e-08
3.93191e-06
6.53613e-08
3.94206e-06
1.34536e-07
3.93573e-06
-4.1594e-08
3.94479e-06
8.40178e-08
3.93419e-06
-8.9912e-08
3.94845e-06
8.13948e-08
3.93928e-06
-4.565e-08
3.94821e-06
-1.59554e-08
3.94777e-06
9.83034e-09
3.94767e-06
-6.86607e-08
3.95246e-06
-1.34561e-08
3.94995e-06
-1.98743e-08
3.95029e-06
-2.31108e-08
3.9483e-06
1.69191e-08
3.94284e-06
4.02185e-08
3.93978e-06
6.71606e-08
3.93714e-06
1.0899e-07
3.93439e-06
1.42328e-07
1.67374e-07
3.93351e-06
4.12296e-06
-3.68883e-08
4.11933e-06
6.89943e-08
4.13039e-06
1.23475e-07
4.12374e-06
-3.49477e-08
4.13285e-06
7.49097e-08
4.12276e-06
-7.98205e-08
4.13602e-06
6.81296e-08
4.12845e-06
-3.80767e-08
4.13578e-06
-2.32824e-08
4.1368e-06
8.80231e-09
4.13579e-06
-6.765e-08
4.14053e-06
-1.81978e-08
4.13759e-06
-1.6928e-08
4.13636e-06
-2.18776e-08
4.13394e-06
1.93316e-08
4.12798e-06
4.61854e-08
4.12432e-06
7.08132e-08
4.12227e-06
1.11042e-07
4.12041e-06
1.44188e-07
1.67934e-07
4.11985e-06
4.32026e-06
-3.78461e-08
4.31575e-06
7.35021e-08
4.32751e-06
1.1172e-07
4.32091e-06
-2.83537e-08
4.32961e-06
6.62149e-08
4.32051e-06
-7.0721e-08
4.33241e-06
5.62242e-08
4.32656e-06
-3.22227e-08
4.33242e-06
-2.91462e-08
4.33446e-06
6.76413e-09
4.33274e-06
-6.59275e-08
4.33689e-06
-2.23486e-08
4.33323e-06
-1.32682e-08
4.33035e-06
-1.90004e-08
4.32753e-06
2.21543e-08
4.32139e-06
5.23279e-08
4.31721e-06
7.49928e-08
4.31568e-06
1.12569e-07
4.31481e-06
1.45063e-07
1.6801e-07
4.31473e-06
4.52695e-06
-3.90208e-08
4.52169e-06
7.87652e-08
4.53376e-06
9.9646e-08
4.5277e-06
-2.22959e-08
4.5355e-06
5.84183e-08
4.52781e-06
-6.30286e-08
4.53818e-06
4.58492e-08
4.53388e-06
-2.79237e-08
4.5386e-06
-3.38676e-08
4.54113e-06
4.24186e-09
4.53866e-06
-6.34637e-08
4.54183e-06
-2.5518e-08
4.53734e-06
-8.77266e-09
4.53285e-06
-1.45113e-08
4.52979e-06
2.52069e-08
4.52385e-06
5.82762e-08
4.51929e-06
7.95524e-08
4.51823e-06
1.13628e-07
4.51825e-06
1.45041e-07
1.67505e-07
4.51875e-06
4.74346e-06
-4.03627e-08
4.73764e-06
8.45858e-08
4.74952e-06
8.77629e-08
4.74453e-06
-1.73105e-08
4.75103e-06
5.19247e-08
4.74498e-06
-5.69771e-08
4.75391e-06
3.69107e-08
4.75076e-06
-2.47715e-08
4.75467e-06
-3.77789e-08
4.75723e-06
1.68181e-09
4.75379e-06
-6.00203e-08
4.75576e-06
-2.74888e-08
4.75058e-06
-3.59285e-09
4.74457e-06
-8.50159e-09
4.74147e-06
2.83057e-08
4.73606e-06
6.36885e-08
4.73132e-06
8.42915e-08
4.73066e-06
1.14294e-07
4.73139e-06
1.44311e-07
1.66357e-07
4.73253e-06
4.97024e-06
-4.18065e-08
4.96414e-06
9.06835e-08
4.97521e-06
7.66955e-08
4.97183e-06
-1.39275e-08
4.97678e-06
4.69717e-08
4.97233e-06
-5.25303e-08
4.98018e-06
2.90659e-08
4.97762e-06
-2.22125e-08
4.98094e-06
-4.11023e-08
4.98322e-06
-5.98207e-10
4.97855e-06
-5.53509e-08
4.97918e-06
-2.81137e-08
4.97367e-06
1.91757e-09
4.96638e-06
-1.21655e-09
4.96326e-06
3.14313e-08
4.95862e-06
6.83228e-08
4.95398e-06
8.89325e-08
4.95357e-06
1.14707e-07
4.95481e-06
1.43071e-07
1.64535e-07
4.95663e-06
5.20779e-06
-4.32753e-08
5.20176e-06
9.67094e-08
5.21136e-06
6.70912e-08
5.20997e-06
-1.25355e-08
5.21342e-06
4.35209e-08
5.21024e-06
-4.93449e-08
5.21745e-06
2.1857e-08
5.21501e-06
-1.97733e-08
5.21768e-06
-4.37711e-08
5.21954e-06
-2.46369e-09
5.21348e-06
-4.92906e-08
5.21273e-06
-2.73611e-08
5.20722e-06
7.42682e-09
5.19911e-06
6.88723e-09
5.19581e-06
3.47347e-08
5.19205e-06
7.20873e-08
5.18786e-06
9.31181e-08
5.18749e-06
1.15073e-07
5.1891e-06
1.41469e-07
1.62052e-07
5.19158e-06
5.4566e-06
-4.46888e-08
5.45103e-06
1.02282e-07
5.45865e-06
5.94745e-08
5.45932e-06
-1.32047e-08
5.46161e-06
4.12246e-08
5.45913e-06
-4.68672e-08
5.46608e-06
1.49106e-08
5.46356e-06
-1.72492e-08
5.4652e-06
-4.54105e-08
5.46658e-06
-3.84752e-09
5.45922e-06
-4.19344e-08
5.45708e-06
-2.52157e-08
5.45184e-06
1.26612e-08
5.44347e-06
1.52638e-08
5.43979e-06
3.84108e-08
5.43684e-06
7.50399e-08
5.43345e-06
9.65063e-08
5.43296e-06
1.15559e-07
5.43482e-06
1.39612e-07
1.58982e-07
5.43789e-06
5.71724e-06
-4.5971e-08
5.71252e-06
1.06998e-07
5.71782e-06
5.41816e-08
5.72022e-06
-1.56071e-08
5.72193e-06
3.95104e-08
5.7196e-06
-4.4534e-08
5.72644e-06
8.06782e-09
5.72386e-06
-1.46662e-08
5.72404e-06
-4.5585e-08
5.72486e-06
-4.67473e-09
5.71645e-06
-3.35202e-08
5.71299e-06
-2.17573e-08
5.70822e-06
1.7435e-08
5.69999e-06
2.34874e-08
5.69587e-06
4.25322e-08
5.69356e-06
7.73474e-08
5.69115e-06
9.89174e-08
5.69056e-06
1.16156e-07
5.69258e-06
1.37592e-07
1.55446e-07
5.69611e-06
5.99028e-06
-4.70567e-08
5.98681e-06
1.10466e-07
5.98967e-06
5.1325e-08
5.99312e-06
-1.9057e-08
5.99487e-06
3.77568e-08
5.99231e-06
-4.19744e-08
5.99894e-06
1.44193e-09
5.99636e-06
-1.20927e-08
5.9949e-06
-4.41204e-08
5.99502e-06
-4.79322e-09
5.98593e-06
-2.44364e-08
5.98118e-06
-1.70074e-08
5.97694e-06
2.16746e-08
5.96923e-06
3.11988e-08
5.96469e-06
4.70771e-08
5.96286e-06
7.91729e-08
5.96137e-06
1.0041e-07
5.96084e-06
1.16683e-07
5.96296e-06
1.35474e-07
1.51581e-07
5.96683e-06
6.27633e-06
-4.78984e-08
6.27438e-06
1.12412e-07
6.275e-06
5.07126e-08
6.27859e-06
-2.26532e-08
6.28082e-06
3.55242e-08
6.27796e-06
-3.91085e-08
6.28412e-06
-4.71528e-09
6.28138e-06
-9.36141e-09
6.27843e-06
-4.11633e-08
6.27776e-06
-4.12889e-09
6.2683e-06
-1.49738e-08
6.26239e-06
-1.10987e-08
6.25869e-06
2.53777e-08
6.25171e-06
3.81807e-08
6.24686e-06
5.19245e-08
6.2454e-06
8.06295e-08
6.24459e-06
1.01222e-07
6.24438e-06
1.16895e-07
6.24659e-06
1.33267e-07
1.47505e-07
6.25066e-06
6.57604e-06
-4.84666e-08
6.57568e-06
1.12769e-07
6.57455e-06
5.18389e-08
6.57744e-06
-2.55403e-08
6.58024e-06
3.27279e-08
6.57716e-06
-3.60303e-08
6.58265e-06
-1.0205e-08
6.57956e-06
-6.27704e-09
6.57519e-06
-3.67922e-08
6.57378e-06
-2.71263e-09
6.56433e-06
-5.52523e-09
6.55736e-06
-4.12715e-09
6.55408e-06
2.86585e-08
6.54796e-06
4.42976e-08
6.54303e-06
5.68535e-08
6.54182e-06
8.18381e-08
6.54146e-06
1.01588e-07
6.54171e-06
1.16639e-07
6.54405e-06
1.30925e-07
1.433e-07
6.54826e-06
6.89007e-06
-4.8745e-08
6.8912e-06
1.11638e-07
6.88899e-06
5.40489e-08
6.89069e-06
-2.72441e-08
6.89352e-06
2.99032e-08
6.89047e-06
-3.29796e-08
6.89525e-06
-1.49825e-08
6.89176e-06
-2.79593e-09
6.88585e-06
-3.08796e-08
6.88389e-06
-7.52671e-10
6.87472e-06
3.64234e-09
6.86689e-06
3.70765e-09
6.86374e-06
3.18066e-08
6.85858e-06
4.94569e-08
6.85383e-06
6.16007e-08
6.85276e-06
8.2909e-08
6.85268e-06
1.01672e-07
6.85344e-06
1.15883e-07
6.85598e-06
1.28376e-07
1.38998e-07
6.86029e-06
7.21912e-06
-4.87238e-08
7.22151e-06
1.09243e-07
7.21888e-06
5.66803e-08
7.21935e-06
-2.77201e-08
7.22133e-06
2.79253e-08
7.21822e-06
-2.98637e-08
7.22252e-06
-1.92899e-08
7.21865e-06
1.08153e-09
7.21126e-06
-2.34904e-08
7.20875e-06
1.75576e-09
7.20027e-06
1.21261e-08
7.19176e-06
1.22116e-08
7.18842e-06
3.51445e-08
7.18419e-06
5.3687e-08
7.17992e-06
6.58741e-08
7.17889e-06
8.394e-08
7.17901e-06
1.01551e-07
7.18021e-06
1.14681e-07
7.18301e-06
1.25575e-07
1.3459e-07
7.18742e-06
7.5639e-06
-4.83969e-08
7.56734e-06
1.05802e-07
7.56471e-06
5.93122e-08
7.5643e-06
-2.73101e-08
7.56467e-06
2.75548e-08
7.56105e-06
-2.62401e-08
7.56497e-06
-2.3213e-08
7.56097e-06
5.08446e-09
7.55215e-06
-1.4678e-08
7.54913e-06
4.78301e-09
7.54155e-06
1.97043e-08
7.53276e-06
2.1e-08
7.52894e-06
3.8966e-08
7.52547e-06
5.71528e-08
7.52193e-06
6.94138e-08
7.52089e-06
8.49811e-08
7.52122e-06
1.0122e-07
7.52277e-06
1.13132e-07
7.52584e-06
1.2251e-07
1.30059e-07
7.53037e-06
7.92517e-06
-4.77553e-08
7.92947e-06
1.01503e-07
7.92702e-06
6.17614e-08
7.92613e-06
-2.64194e-08
7.92491e-06
2.87775e-08
7.91967e-06
-2.10018e-08
7.92304e-06
-2.65887e-08
7.91946e-06
8.66756e-09
7.9096e-06
-4.81871e-09
7.9058e-06
8.58821e-09
7.8993e-06
2.6197e-08
7.8906e-06
2.97021e-08
7.88612e-06
4.34466e-08
7.88322e-06
6.00569e-08
7.88046e-06
7.21736e-08
7.87954e-06
8.59016e-08
7.88008e-06
1.00673e-07
7.88189e-06
1.11323e-07
7.88519e-06
1.19215e-07
1.25392e-07
7.88985e-06
8.30371e-06
-4.67796e-08
8.30876e-06
9.64515e-08
8.30639e-06
6.41285e-08
8.30549e-06
-2.55181e-08
8.30305e-06
3.12126e-08
8.29529e-06
-1.3241e-08
8.2974e-06
-2.86955e-08
8.29473e-06
1.13417e-08
8.28443e-06
5.47782e-09
8.27964e-06
1.33782e-08
8.27425e-06
3.15828e-08
8.26598e-06
3.79744e-08
8.26087e-06
4.85566e-08
8.25827e-06
6.26575e-08
8.25619e-06
7.425e-08
8.25559e-06
8.65065e-08
8.25638e-06
9.98866e-08
8.25839e-06
1.09307e-07
8.26186e-06
1.15747e-07
1.20595e-07
8.26666e-06
8.70033e-06
-4.54441e-08
8.70612e-06
9.06584e-08
8.70358e-06
6.66724e-08
8.70304e-06
-2.49858e-08
8.69979e-06
3.4464e-08
8.68918e-06
-2.62549e-09
8.68919e-06
-2.87086e-08
8.68767e-06
1.28638e-08
8.67724e-06
1.59099e-08
8.67152e-06
1.90948e-08
8.66708e-06
3.60246e-08
8.65961e-06
4.54405e-08
8.6541e-06
5.40708e-08
8.65148e-06
6.52726e-08
8.64999e-06
7.57444e-08
8.6498e-06
8.66895e-08
8.65089e-06
9.87999e-08
8.65311e-06
1.07092e-07
8.65669e-06
1.12159e-07
1.15705e-07
8.66158e-06
9.11589e-06
-4.37198e-08
9.12234e-06
8.42138e-08
9.1197e-06
6.93124e-08
9.11902e-06
-2.43032e-08
9.11599e-06
3.7493e-08
9.10287e-06
1.0494e-08
9.09991e-06
-2.57471e-08
9.09895e-06
1.3817e-08
9.08907e-06
2.5789e-08
9.0824e-06
2.57725e-08
9.07855e-06
3.98728e-08
9.07224e-06
5.17475e-08
9.06664e-06
5.96723e-08
9.0638e-06
6.81122e-08
9.06275e-06
7.67932e-08
9.06298e-06
8.64633e-08
9.06444e-06
9.73371e-08
9.06689e-06
1.04646e-07
9.07056e-06
1.08486e-07
1.10766e-07
9.0755e-06
9.55131e-06
-4.15747e-08
9.55824e-06
7.729e-08
9.55563e-06
7.1916e-08
9.55439e-06
-2.30557e-08
9.55212e-06
3.97586e-08
9.53734e-06
2.52774e-08
9.53093e-06
-1.93406e-08
9.52994e-06
1.48132e-08
9.52083e-06
3.48909e-08
9.51322e-06
3.33865e-08
9.50963e-06
4.34608e-08
9.50465e-06
5.67339e-08
9.49929e-06
6.50305e-08
9.49624e-06
7.11625e-08
9.49543e-06
7.75984e-08
9.49599e-06
8.59006e-08
9.49787e-06
9.54569e-08
9.50061e-06
1.01906e-07
9.50439e-06
1.04715e-07
1.05824e-07
9.50933e-06
1.00075e-05
-3.89594e-08
1.00148e-05
7.00109e-08
1.00123e-05
7.44619e-08
1.00103e-05
-2.10553e-08
1.00088e-05
4.125e-08
9.99319e-06
4.0847e-08
9.98351e-06
-9.65892e-09
9.98186e-06
1.64609e-08
9.97354e-06
4.32135e-08
9.96506e-06
4.18623e-08
9.96136e-06
4.71651e-08
9.95762e-06
6.04708e-08
9.95288e-06
6.97755e-08
9.94975e-06
7.42914e-08
9.94898e-06
7.83666e-08
9.94981e-06
8.50662e-08
9.9521e-06
9.31748e-08
9.95519e-06
9.88158e-08
9.95909e-06
1.00808e-07
1.00883e-07
9.96403e-06
1.04855e-05
-3.58225e-08
1.04931e-05
6.23721e-08
1.04903e-05
7.72568e-08
1.04877e-05
-1.84572e-08
1.04868e-05
4.21509e-08
1.04713e-05
5.64413e-08
1.04586e-05
2.98749e-09
1.04558e-05
1.92256e-08
1.04484e-05
5.06313e-08
1.04392e-05
5.10932e-08
1.04349e-05
5.14792e-08
1.0432e-05
6.33004e-08
1.04284e-05
7.34662e-08
1.04253e-05
7.73714e-08
1.04244e-05
7.92431e-08
1.04255e-05
8.40161e-08
1.04281e-05
9.05375e-08
1.04316e-05
9.5349e-08
1.04357e-05
9.67101e-08
9.59202e-08
1.04406e-05
1.09863e-05
-3.212e-08
1.09944e-05
5.4278e-08
1.0991e-05
8.06688e-08
1.09876e-05
-1.50723e-08
1.09877e-05
4.20751e-08
1.09722e-05
7.18841e-08
1.0957e-05
1.82239e-08
1.0953e-05
2.3263e-08
1.09466e-05
5.701e-08
1.09369e-05
6.08357e-08
1.09314e-05
5.69351e-08
1.0929e-05
6.56452e-08
1.09265e-05
7.604e-08
1.09238e-05
8.00434e-08
1.09228e-05
8.02738e-08
1.09239e-05
8.28524e-08
1.09269e-05
8.76095e-08
1.09307e-05
9.14979e-08
1.09351e-05
9.23454e-08
9.08907e-08
1.09401e-05
1.15111e-05
-2.7852e-08
1.15193e-05
4.60751e-08
1.15158e-05
8.41822e-08
1.15108e-05
-1.0076e-08
1.15119e-05
4.09428e-08
1.14974e-05
8.64091e-08
1.14797e-05
3.59165e-08
1.14742e-05
2.87462e-08
1.14689e-05
6.22813e-08
1.14591e-05
7.06395e-08
1.14523e-05
6.37728e-08
1.14499e-05
6.80318e-08
1.14482e-05
7.77941e-08
1.14462e-05
8.19692e-08
1.14452e-05
8.12968e-08
1.14464e-05
8.17002e-08
1.14495e-05
8.45042e-08
1.14537e-05
8.73007e-08
1.14583e-05
8.76821e-08
8.57231e-08
1.14635e-05
1.2061e-05
-2.30716e-08
1.20691e-05
3.79775e-08
1.20657e-05
8.7598e-08
1.20586e-05
-2.90528e-09
1.20606e-05
3.89135e-08
1.20479e-05
9.90627e-08
1.2028e-05
5.58123e-08
1.20206e-05
3.61721e-08
1.20164e-05
6.65242e-08
1.20071e-05
7.99149e-08
1.1999e-05
7.18198e-08
1.19959e-05
7.11659e-08
1.19947e-05
7.89923e-08
1.19935e-05
8.3162e-08
1.19928e-05
8.19955e-08
1.19939e-05
8.05905e-08
1.19971e-05
8.13544e-08
1.20015e-05
8.28502e-08
1.20065e-05
8.27069e-08
8.03507e-08
1.20119e-05
1.26374e-05
-1.78803e-08
1.26451e-05
3.03104e-08
1.26421e-05
9.0582e-08
1.26323e-05
6.86915e-09
1.26344e-05
3.67789e-08
1.26247e-05
1.08788e-07
1.26036e-05
7.69137e-08
1.25933e-05
4.64931e-08
1.25897e-05
7.01005e-08
1.25817e-05
8.79433e-08
1.25728e-05
8.06789e-08
1.25685e-05
7.54944e-08
1.25675e-05
8.0022e-08
1.25668e-05
8.38319e-08
1.25666e-05
8.22018e-08
1.25678e-05
7.94152e-08
1.25709e-05
7.8242e-08
1.25755e-05
7.82639e-08
1.25807e-05
7.74339e-08
7.47337e-08
1.25864e-05
1.32415e-05
-1.24352e-08
1.32484e-05
2.34445e-08
1.32461e-05
9.28816e-08
1.32336e-05
1.93227e-08
1.32349e-05
3.54558e-08
1.32286e-05
1.15066e-07
1.32076e-05
9.79787e-08
1.31941e-05
5.99581e-08
1.31902e-05
7.39936e-08
1.31839e-05
9.42858e-08
1.31747e-05
8.98325e-08
1.31693e-05
8.09428e-08
1.31678e-05
8.15145e-08
1.31675e-05
8.40733e-08
1.31677e-05
8.2024e-08
1.31691e-05
7.80358e-08
1.31722e-05
7.51506e-08
1.31768e-05
7.36246e-08
1.31823e-05
7.19457e-08
6.88873e-08
1.31882e-05
1.38747e-05
-6.95882e-09
1.38801e-05
1.80244e-08
1.3879e-05
9.39749e-08
1.38642e-05
3.41837e-08
1.38635e-05
3.61014e-08
1.38606e-05
1.17938e-07
1.38413e-05
1.17361e-07
1.38248e-05
7.64508e-08
1.38194e-05
7.93376e-08
1.38145e-05
9.91753e-08
1.38059e-05
9.84239e-08
1.37995e-05
8.73693e-08
1.37972e-05
8.38261e-08
1.37971e-05
8.41629e-08
1.37976e-05
8.15485e-08
1.37992e-05
7.64528e-08
1.38023e-05
7.20284e-08
1.3807e-05
6.89626e-08
1.38126e-05
6.62954e-08
6.28904e-08
1.38186e-05
1.45384e-05
-1.70147e-09
1.45418e-05
1.46606e-08
1.45422e-05
9.35231e-08
1.45258e-05
5.05886e-08
1.4522e-05
3.99154e-08
1.4522e-05
1.17979e-07
1.45054e-05
1.3391e-07
1.44869e-05
9.49394e-08
1.44791e-05
8.71735e-08
1.44749e-05
1.03352e-07
1.44676e-05
1.05718e-07
1.44604e-05
9.4579e-08
1.44573e-05
8.69201e-08
1.44569e-05
8.45656e-08
1.44577e-05
8.07983e-08
1.44594e-05
7.4709e-08
1.44625e-05
6.88855e-08
1.44671e-05
6.4365e-08
1.44728e-05
6.06479e-08
5.67066e-08
1.4479e-05
1.52341e-05
3.10415e-09
1.52351e-05
1.36328e-08
1.52367e-05
9.19632e-08
1.52203e-05
6.69987e-08
1.52125e-05
4.76775e-08
1.52139e-05
1.16616e-07
1.52011e-05
1.46666e-07
1.51819e-05
1.14133e-07
1.51713e-05
9.7783e-08
1.51667e-05
1.07926e-07
1.51607e-05
1.11718e-07
1.51535e-05
1.01813e-07
1.51494e-05
9.09618e-08
1.51486e-05
8.54394e-08
1.51493e-05
8.00453e-08
1.51513e-05
7.27411e-08
1.51545e-05
6.57052e-08
1.5159e-05
5.97907e-08
1.51648e-05
5.49444e-08
5.03307e-08
1.51711e-05
1.59631e-05
7.30376e-09
1.59616e-05
1.51768e-08
1.5964e-05
8.95837e-08
1.59487e-05
8.22176e-08
1.59371e-05
5.93678e-08
1.59382e-05
1.15431e-07
1.59294e-05
1.5547e-07
1.59109e-05
1.32678e-07
1.58979e-05
1.10733e-07
1.5892e-05
1.13874e-07
1.58866e-05
1.17073e-07
1.58801e-05
1.08391e-07
1.58751e-05
9.59183e-08
1.58737e-05
8.68834e-08
1.58741e-05
7.95948e-08
1.58762e-05
7.06666e-08
1.58795e-05
6.2436e-08
1.5884e-05
5.52096e-08
1.58898e-05
4.91727e-08
4.37818e-08
1.58964e-05
1.6727e-05
1.08874e-08
1.67232e-05
1.89959e-08
1.67256e-05
8.71707e-08
1.67125e-05
9.53612e-08
1.6698e-05
7.38248e-08
1.66972e-05
1.16252e-07
1.66918e-05
1.60894e-07
1.66752e-05
1.49218e-07
1.66606e-05
1.25365e-07
1.66528e-05
1.21661e-07
1.66472e-05
1.22648e-07
1.66414e-05
1.14271e-07
1.6636e-05
1.01263e-07
1.66337e-05
8.92195e-08
1.66337e-05
7.95221e-08
1.66355e-05
6.8871e-08
1.66388e-05
5.91542e-08
1.66434e-05
5.06527e-08
1.66492e-05
4.33484e-08
3.71103e-08
1.66559e-05
1.75273e-05
1.39038e-08
1.7522e-05
2.43316e-08
1.75234e-05
8.57847e-08
1.75127e-05
1.06039e-07
1.74969e-05
8.96103e-08
1.74932e-05
1.19952e-07
1.74898e-05
1.64359e-07
1.74762e-05
1.62822e-07
1.74608e-05
1.40738e-07
1.74511e-05
1.31302e-07
1.74446e-05
1.29157e-07
1.74389e-05
1.19982e-07
1.74335e-05
1.0666e-07
1.74303e-05
9.24739e-08
1.74298e-05
7.99975e-08
1.7431e-05
6.76997e-08
1.7434e-05
5.60785e-08
1.74385e-05
4.62458e-08
1.74444e-05
3.74405e-08
3.02356e-08
1.74512e-05
1.83658e-05
1.64545e-08
1.83594e-05
3.06851e-08
1.83594e-05
8.57964e-08
1.8351e-05
1.14425e-07
1.83352e-05
1.05498e-07
1.83288e-05
1.26289e-07
1.8326e-05
1.67207e-07
1.83151e-05
1.73713e-07
1.83001e-05
1.55721e-07
1.82889e-05
1.42537e-07
1.82811e-05
1.36966e-07
1.82748e-05
1.26281e-07
1.82692e-05
1.1223e-07
1.82652e-05
9.64772e-08
1.82637e-05
8.14324e-08
1.82643e-05
6.71464e-08
1.82668e-05
5.36076e-08
1.8271e-05
4.20308e-08
1.82769e-05
3.15212e-08
2.28737e-08
1.82843e-05
1.92442e-05
1.86648e-08
1.92374e-05
3.74485e-08
1.92358e-05
8.73743e-08
1.92292e-05
1.21044e-07
1.92145e-05
1.20228e-07
1.92058e-05
1.34946e-07
1.92026e-05
1.704e-07
1.9194e-05