/*--------------------------------*- C++ -*----------------------------------*\
| =========                 |                                                 |
| \\      /  F ield         | OpenFOAM: The Open Source CFD Toolbox           |
|  \\    /   O peration     | Version:  v2012                                 |
|   \\  /    A nd           | Website:  www.openfoam.com                      |
|    \\/     M anipulation  |                                                 |
\*---------------------------------------------------------------------------*/
FoamFile
{
    version     2.0;
    format      ascii;
    class       volVectorField;
    location    "0.8";
    object      U;
}
// * * * * * * * * * * * * * * * * * * * * * * * * * * * * * * * * * * * * * //

dimensions      [0 1 -1 0 0 0 0];


internalField   nonuniform List<vector> 
17600
(
(0.825869 -0.000799481 0)
(1.17134 0.00158836 0)
(0.848581 0.00235538 0)
(1.14982 -0.00135255 0)
(0.852758 0.00158967 0)
(1.12959 -0.00374306 0)
(0.854986 0.00445995 0)
(1.12105 -0.00411102 0)
(0.850232 0.00296149 0)
(1.11479 -0.00121197 0)
(0.851036 -0.000235598 0)
(1.10608 -0.000317494 0)
(0.856153 0.000350503 0)
(1.10107 -0.00118793 0)
(0.856798 0.000412192 0)
(1.09763 -0.000979731 0)
(0.853192 0.000971316 0)
(1.09661 -0.000898463 0)
(0.841359 0.00234398 0)
(1.09546 0.000128975 0)
(0.836814 -0.0008733 0)
(1.15968 0.00159808 0)
(0.862069 0.00233237 0)
(1.13555 -0.00119581 0)
(0.867619 0.00156106 0)
(1.11294 -0.00353862 0)
(0.870712 0.00432547 0)
(1.10032 -0.00381231 0)
(0.86948 0.00279788 0)
(1.08914 -0.000981659 0)
(0.878146 -0.000414806 0)
(1.07511 -0.00014803 0)
(0.892584 0.000170014 0)
(1.0616 -0.001047 0)
(0.905968 0.000316076 0)
(1.04385 -0.000897391 0)
(0.922562 0.00114819 0)
(1.01945 -0.00110762 0)
(0.941971 0.00361814 0)
(0.980959 -0.000543941 0)
(0.858158 -0.000936942 0)
(1.13605 0.00158729 0)
(0.8868 0.00235169 0)
(1.11011 -0.00105395 0)
(0.894564 0.00157895 0)
(1.08513 -0.00336644 0)
(0.899179 0.00424767 0)
(1.06913 -0.0035872 0)
(0.902892 0.00271153 0)
(1.05279 -0.000915782 0)
(0.918932 -0.000374288 0)
(1.03468 -0.000268311 0)
(0.937368 0.000298767 0)
(1.01951 -0.00118239 0)
(0.952666 0.000568707 0)
(1.00271 -0.00114989 0)
(0.966236 0.00155649 0)
(0.986533 -0.00132901 0)
(0.973283 0.0040374 0)
(0.971554 0.000265462 0)
(0.886827 -0.000956974 0)
(1.10409 0.00151768 0)
(0.91683 0.00242184 0)
(1.07926 -0.000987128 0)
(0.926123 0.00166725 0)
(1.05437 -0.00327637 0)
(0.93113 0.00427755 0)
(1.03875 -0.00350514 0)
(0.937496 0.00278059 0)
(1.02227 -0.00102888 0)
(0.95438 -0.000195268 0)
(1.00677 -0.000495805 0)
(0.967955 0.000497682 0)
(0.998242 -0.00139707 0)
(0.976402 0.000814219 0)
(0.990342 -0.00134893 0)
(0.98111 0.00181232 0)
(0.984519 -0.00137119 0)
(0.979632 0.00423018 0)
(0.978695 0.00116263 0)
(0.917865 -0.000932119 0)
(1.07011 0.00139794 0)
(0.945551 0.00251627 0)
(1.04998 -0.000976756 0)
(0.954431 0.00179601 0)
(1.02857 -0.00322932 0)
(0.957924 0.00434657 0)
(1.01705 -0.00349026 0)
(0.963699 0.00289601 0)
(1.00507 -0.00117968 0)
(0.976658 -3.11771e-05 0)
(0.995623 -0.0006575 0)
(0.983622 0.000599303 0)
(0.993559 -0.00151309 0)
(0.986608 0.000929092 0)
(0.990845 -0.00141744 0)
(0.987403 0.0019231 0)
(0.988061 -0.00127609 0)
(0.984351 0.00435099 0)
(0.983156 0.00209117 0)
(0.946203 -0.00087179 0)
(1.04049 0.00126325 0)
(0.968307 0.00260284 0)
(1.02751 -0.000991488 0)
(0.975012 0.00192153 0)
(1.01178 -0.00318943 0)
(0.976043 0.00439339 0)
(1.00552 -0.0034828 0)
(0.979762 0.00296673 0)
(0.998873 -0.00129157 0)
(0.988369 6.34616e-05 0)
(0.994214 -0.000746622 0)
(0.991413 0.000623419 0)
(0.995058 -0.00156111 0)
(0.992158 0.000973775 0)
(0.993842 -0.00142913 0)
(0.991893 0.00198001 0)
(0.991493 -0.00110934 0)
(0.988624 0.00443833 0)
(0.986891 0.00296034 0)
(0.968397 -0.000792896 0)
(1.01915 0.00114579 0)
(0.983613 0.00265718 0)
(1.01349 -0.00100837 0)
(0.987606 0.00201504 0)
(1.00341 -0.00314206 0)
(0.986664 0.00439909 0)
(1.00123 -0.00346508 0)
(0.988609 0.00297842 0)
(0.998274 -0.00136147 0)
(0.994415 0.000101346 0)
(0.996021 -0.000801081 0)
(0.995947 0.00061769 0)
(0.997606 -0.00158491 0)
(0.995926 0.000991136 0)
(0.996664 -0.00140484 0)
(0.995265 0.00199746 0)
(0.994379 -0.000862812 0)
(0.991862 0.00445547 0)
(0.990117 0.0037954 0)
(0.983398 -0.000714116 0)
(1.00651 0.00106069 0)
(0.992568 0.00267233 0)
(1.00638 -0.00101763 0)
(0.994416 0.00207079 0)
(1.00045 -0.00308847 0)
(0.99265 0.00437135 0)
(1.00058 -0.00343715 0)
(0.99358 0.002951 0)
(0.999541 -0.00140529 0)
(0.997928 0.000111759 0)
(0.998216 -0.000840891 0)
(0.998986 0.000602017 0)
(0.999847 -0.00159216 0)
(0.99862 0.000993914 0)
(0.998905 -0.00134356 0)
(0.997714 0.00197712 0)
(0.996613 -0.000542216 0)
(0.99426 0.00441125 0)
(0.992611 0.00459143 0)
(0.992161 -0.000648049 0)
(1.00047 0.00100562 0)
(0.997302 0.00265713 0)
(1.00348 -0.00101969 0)
(0.997921 0.00209751 0)
(0.999986 -0.00303513 0)
(0.996259 0.004323 0)
(1.00122 -0.00340001 0)
(0.996684 0.00290123 0)
(1.00105 -0.0014305 0)
(1.00024 0.000109878 0)
(1.00003 -0.000870713 0)
(1.00112 0.000579915 0)
(1.00157 -0.00158015 0)
(1.00054 0.000981346 0)
(1.00056 -0.00124283 0)
(0.999473 0.00192054 0)
(0.998253 -0.000163113 0)
(0.996044 0.00433531 0)
(0.994474 0.00532757 0)
(0.996592 -0.000598069 0)
(0.998265 0.000969275 0)
(0.999696 0.00262583 0)
(1.00255 -0.00101828 0)
(0.999765 0.00210672 0)
(1.00029 -0.00298634 0)
(0.998611 0.00426218 0)
(1.00205 -0.00335384 0)
(0.998766 0.00283679 0)
(1.00227 -0.0014386 0)
(1.00182 9.75426e-05 0)
(1.00134 -0.000888429 0)
(1.00256 0.000548741 0)
(1.00277 -0.0015465 0)
(1.00185 0.000947371 0)
(1.00171 -0.00110315 0)
(1.00069 0.00183353 0)
(0.99941 0.000261795 0)
(0.997352 0.00425534 0)
(0.995866 0.00597675 0)
(0.998543 -0.000561231 0)
(0.99776 0.000940625 0)
(1.00092 0.00258922 0)
(1.00232 -0.00101605 0)
(1.00076 0.00210647 0)
(1.00065 -0.00294251 0)
(1.00013 0.00419179 0)
(1.00271 -0.00329853 0)
(1.00013 0.00276019 0)
(1.00309 -0.0014302 0)
(1.00282 7.32641e-05 0)
(1.00218 -0.000890705 0)
(1.00344 0.000502173 0)
(1.00351 -0.00148686 0)
(1.00267 0.000885489 0)
(1.00244 -0.000927833 0)
(1.00147 0.00172421 0)
(1.00019 0.000712283 0)
(0.998287 0.00419883 0)
(0.9969 0.00651847 0)
(0.999305 -0.000532819 0)
(0.997806 0.000913242 0)
(1.00156 0.00255249 0)
(1.00227 -0.00101365 0)
(1.00126 0.00210082 0)
(1.00089 -0.00290168 0)
(1.00104 0.00411221 0)
(1.00313 -0.00323398 0)
(1.00096 0.00267193 0)
(1.00355 -0.00140637 0)
(1.00338 3.64844e-05 0)
(1.00263 -0.000875791 0)
(1.00391 0.000435369 0)
(1.00391 -0.00140013 0)
(1.00311 0.000795956 0)
(1.00284 -0.000724539 0)
(1.00194 0.00160319 0)
(1.00068 0.00115786 0)
(0.998948 0.00418975 0)
(0.997675 0.00694377 0)
(0.999584 -0.000509135 0)
(0.99795 0.000884847 0)
(1.00189 0.0025169 0)
(1.00225 -0.00101078 0)
(1.00149 0.00209143 0)
(1.00102 -0.0028615 0)
(1.00153 0.00402367 0)
(1.00335 -0.00316056 0)
(1.00142 0.00257217 0)
(1.00377 -0.00136745 0)
(1.00366 -1.47429e-05 0)
(1.00285 -0.000841784 0)
(1.0041 0.000347963 0)
(1.00408 -0.00128968 0)
(1.00331 0.000684859 0)
(1.00304 -0.00050393 0)
(1.0022 0.00148767 0)
(1.001 0.00157056 0)
(0.999431 0.00424229 0)
(0.998279 0.00725904 0)
(0.999691 -0.000488109 0)
(0.998075 0.000855364 0)
(1.00207 0.00248202 0)
(1.00223 -0.001007 0)
(1.00156 0.00207871 0)
(1.0011 -0.00281956 0)
(1.00176 0.00392555 0)
(1.00346 -0.00307704 0)
(1.00166 0.00245869 0)
(1.00384 -0.00131068 0)
(1.00379 -8.67991e-05 0)
(1.00293 -0.000786202 0)
(1.00415 0.000241084 0)
(1.00414 -0.00115982 0)
(1.00338 0.000557093 0)
(1.00313 -0.000279843 0)
(1.00236 0.00140016 0)
(1.00122 0.00193168 0)
(0.999812 0.00435819 0)
(0.998781 0.00748611 0)
(0.999741 -0.000468811 0)
(0.998169 0.000825392 0)
(1.00216 0.00244697 0)
(1.00222 -0.00100201 0)
(1.00156 0.00206261 0)
(1.00114 -0.00277399 0)
(1.00186 0.00381732 0)
(1.0035 -0.00298234 0)
(1.00179 0.00232959 0)
(1.00384 -0.00123539 0)
(1.00384 -0.000177364 0)
(1.00296 -0.000708759 0)
(1.00414 0.000114823 0)
(1.00415 -0.00101527 0)
(1.00341 0.000418288 0)
(1.00317 -5.20702e-05 0)
(1.00247 0.00136082 0)
(1.0014 0.0022374 0)
(1.00014 0.00452546 0)
(0.999227 0.00765085 0)
(0.99977 -0.000450846 0)
(0.998241 0.000795531 0)
(1.00219 0.00241095 0)
(1.00222 -0.000995536 0)
(1.00153 0.00204264 0)
(1.00117 -0.0027233 0)
(1.0019 0.00369847 0)
(1.00351 -0.0028756 0)
(1.00187 0.00218382 0)
(1.00381 -0.0011411 0)
(1.00386 -0.00028797 0)
(1.00297 -0.000610736 0)
(1.00412 -3.0214e-05 0)
(1.00415 -0.000863636 0)
(1.00344 0.000289781 0)
(1.00321 0.000164175 0)
(1.00257 0.00137303 0)
(1.00157 0.00249681 0)
(1.00045 0.00472564 0)
(0.999643 0.00778063 0)
(0.99979 -0.000434046 0)
(0.998301 0.000766381 0)
(1.0022 0.00237315 0)
(1.00221 -0.000986999 0)
(1.0015 0.00201766 0)
(1.0012 -0.00266546 0)
(1.00191 0.00356705 0)
(1.0035 -0.00275456 0)
(1.00193 0.00201919 0)
(1.00377 -0.00102677 0)
(1.00388 -0.000421731 0)
(1.00298 -0.000498344 0)
(1.00411 -0.000186257 0)
(1.00416 -0.000715099 0)
(1.00347 0.000188284 0)
(1.00326 0.000333843 0)
(1.00269 0.00142907 0)
(1.00176 0.00272149 0)
(1.00076 0.00493561 0)
(1.00004 0.00789678 0)
(0.999807 -0.000418485 0)
(0.998354 0.000738765 0)
(1.00219 0.00233268 0)
(1.0022 -0.000975657 0)
(1.00146 0.00198672 0)
(1.00123 -0.00259899 0)
(1.0019 0.00342159 0)
(1.00348 -0.00261774 0)
(1.00197 0.00183404 0)
(1.00371 -0.000893377 0)
(1.00389 -0.000572935 0)
(1.00299 -0.000378091 0)
(1.0041 -0.00034356 0)
(1.00417 -0.00058218 0)
(1.00351 0.000118629 0)
(1.00332 0.000455333 0)
(1.00281 0.00152394 0)
(1.00196 0.00292127 0)
(1.00107 0.00513288 0)
(1.00043 0.00800602 0)
(0.999822 -0.000404262 0)
(0.998402 0.000713355 0)
(1.00217 0.00228872 0)
(1.0022 -0.000960917 0)
(1.00141 0.00194892 0)
(1.00125 -0.0025222 0)
(1.00189 0.00326052 0)
(1.00345 -0.00246358 0)
(1.00201 0.00162801 0)
(1.00365 -0.000744499 0)
(1.00391 -0.000736827 0)
(1.00299 -0.00025679 0)
(1.00409 -0.000489606 0)
(1.0042 -0.000479141 0)
(1.00356 8.84986e-05 0)
(1.00339 0.00054554 0)
(1.00295 0.00164975 0)
(1.00218 0.00311039 0)
(1.00139 0.00530977 0)
(1.00082 0.00810947 0)
(0.999837 -0.000391494 0)
(0.99845 0.000690639 0)
(1.00214 0.00224046 0)
(1.00219 -0.000941811 0)
(1.00137 0.00190244 0)
(1.00128 -0.0024329 0)
(1.00188 0.00308269 0)
(1.00341 -0.00229229 0)
(1.00204 0.00140315 0)
(1.00358 -0.000583379 0)
(1.00393 -0.000907991 0)
(1.003 -0.000153282 0)
(1.00409 -0.000615775 0)
(1.00423 -0.000417936 0)
(1.00362 9.54727e-05 0)
(1.00348 0.000612602 0)
(1.0031 0.00178854 0)
(1.0024 0.00330027 0)
(1.00172 0.00546563 0)
(1.00121 0.00820225 0)
(0.999852 -0.000380272 0)
(0.998497 0.00067122 0)
(1.00211 0.00218639 0)
(1.00218 -0.000916352 0)
(1.00133 0.00184493 0)
(1.0013 -0.00232957 0)
(1.00186 0.00288746 0)
(1.00336 -0.00210444 0)
(1.00208 0.00116073 0)
(1.00351 -0.000411683 0)
(1.00394 -0.00108473 0)
(1.00302 -6.50719e-05 0)
(1.00408 -0.000707642 0)
(1.00427 -0.000400411 0)
(1.00367 0.000134041 0)
(1.00359 0.000664494 0)
(1.00326 0.00192011 0)
(1.00264 0.00349538 0)
(1.00206 0.00560391 0)
(1.0016 0.0082762 0)
(0.999867 -0.000370767 0)
(0.998545 0.000656332 0)
(1.00208 0.00212494 0)
(1.00217 -0.0008837 0)
(1.00128 0.00177573 0)
(1.00132 -0.00221231 0)
(1.00185 0.00267539 0)
(1.00332 -0.00190259 0)
(1.00212 0.000907982 0)
(1.00344 -0.000244614 0)
(1.00396 -0.00124764 0)
(1.00303 1.08605e-06 0)
(1.00407 -0.000751272 0)
(1.00432 -0.000419244 0)
(1.00374 0.000198508 0)
(1.00369 0.000715248 0)
(1.00345 0.00203399 0)
(1.00289 0.00369644 0)
(1.0024 0.00573685 0)
(1.002 0.00832995 0)
(0.999883 -0.000363424 0)
(0.998594 0.000647845 0)
(1.00205 0.00205499 0)
(1.00216 -0.000842355 0)
(1.00124 0.00169314 0)
(1.00133 -0.00208052 0)
(1.00184 0.00244737 0)
(1.00327 -0.00169052 0)
(1.00216 0.000650824 0)
(1.00336 -9.26991e-05 0)
(1.00397 -0.00138266 0)
(1.00305 1.96893e-05 0)
(1.00406 -0.000758048 0)
(1.00437 -0.000468203 0)
(1.00381 0.000276996 0)
(1.00381 0.000778328 0)
(1.00365 0.00212911 0)
(1.00316 0.00389698 0)
(1.00275 0.00587599 0)
(1.0024 0.00836538 0)
(0.999898 -0.000359024 0)
(0.998643 0.000646959 0)
(1.00202 0.00197514 0)
(1.00215 -0.000789522 0)
(1.00119 0.00159653 0)
(1.00135 -0.00193378 0)
(1.00183 0.00220573 0)
(1.00321 -0.00147482 0)
(1.00221 0.000398815 0)
(1.00329 3.48414e-05 0)
(1.00398 -0.00148981 0)
(1.00308 -8.90803e-06 0)
(1.00404 -0.000733547 0)
(1.00443 -0.000537358 0)
(1.00389 0.00035205 0)
(1.00393 0.000861559 0)
(1.00387 0.00220811 0)
(1.00344 0.00408438 0)
(1.0031 0.00602501 0)
(1.00281 0.00838707 0)
(0.999914 -0.000356412 0)
(0.998692 0.000652426 0)
(1.00198 0.00188302 0)
(1.00214 -0.000726556 0)
(1.00115 0.00148722 0)
(1.00136 -0.00177484 0)
(1.00183 0.00195611 0)
(1.00315 -0.00126353 0)
(1.00225 0.000162326 0)
(1.00321 0.000128784 0)
(1.00398 -0.00156181 0)
(1.00312 -7.34932e-05 0)
(1.00402 -0.000688542 0)
(1.0045 -0.000610406 0)
(1.00398 0.000415528 0)
(1.00406 0.000973573 0)
(1.0041 0.00228034 0)
(1.00373 0.00424843 0)
(1.00346 0.00618117 0)
(1.00323 0.00840394 0)
(0.999929 -0.000356298 0)
(0.998741 0.000666282 0)
(1.00195 0.00177761 0)
(1.00213 -0.000655273 0)
(1.00111 0.00136717 0)
(1.00137 -0.00160985 0)
(1.00182 0.00170561 0)
(1.00309 -0.0010648 0)
(1.00229 -5.15111e-05 0)
(1.00315 0.000186056 0)
(1.00397 -0.00159564 0)
(1.00316 -0.000167269 0)
(1.004 -0.000633603 0)
(1.00457 -0.000669435 0)
(1.00409 0.000468443 0)
(1.0042 0.00111832 0)
(1.00435 0.00235851 0)
(1.00405 0.00438502 0)
(1.00382 0.00633747 0)
(1.00364 0.00842641 0)
(0.999945 -0.000359525 0)
(0.998788 0.000691482 0)
(1.00191 0.00166019 0)
(1.00212 -0.000575056 0)
(1.00107 0.00123933 0)
(1.00137 -0.00144366 0)
(1.00182 0.00146225 0)
(1.00303 -0.000892103 0)
(1.00233 -0.000236259 0)
(1.00308 0.000207262 0)
(1.00396 -0.00160012 0)
(1.00321 -0.000282055 0)
(1.00398 -0.000572163 0)
(1.00465 -0.000700217 0)
(1.00422 0.000519512 0)
(1.00434 0.0012974 0)
(1.0046 0.00245808 0)
(1.00439 0.00449743 0)
(1.00418 0.00648656 0)
(1.00405 0.00846361 0)
(0.999961 -0.00036522 0)
(0.998835 0.000728111 0)
(1.00188 0.00153173 0)
(1.0021 -0.000488043 0)
(1.00103 0.00110625 0)
(1.00137 -0.00128157 0)
(1.00182 0.00123376 0)
(1.00296 -0.000750465 0)
(1.00236 -0.000394147 0)
(1.00302 0.0001978 0)
(1.00394 -0.00158687 0)
(1.00326 -0.000401872 0)
(1.00396 -0.000500811 0)
(1.00472 -0.000691628 0)
(1.00436 0.000577503 0)
(1.00449 0.00150115 0)
(1.00487 0.00258361 0)
(1.00475 0.0045832 0)
(1.00456 0.00661289 0)
(1.00446 0.00851137 0)
(0.999977 -0.000373691 0)
(0.998879 0.000775195 0)
(1.00184 0.00139561 0)
(1.00208 -0.000399252 0)
(1.00098 0.000980033 0)
(1.00136 -0.00113577 0)
(1.00182 0.00103065 0)
(1.00289 -0.000638155 0)
(1.00239 -0.0005202 0)
(1.00296 0.000163927 0)
(1.00391 -0.00155635 0)
(1.00332 -0.00051166 0)
(1.00395 -0.000410553 0)
(1.0048 -0.000637713 0)
(1.00453 0.000647884 0)
(1.00466 0.00171823 0)
(1.00513 0.00273718 0)
(1.00512 0.00464483 0)
(1.00495 0.00670192 0)
(1.00486 0.00855564 0)
(0.999992 -0.000385309 0)
(0.99892 0.000834205 0)
(1.0018 0.00125014 0)
(1.00206 -0.000315382 0)
(1.00094 0.000866972 0)
(1.00135 -0.00101674 0)
(1.00182 0.000852135 0)
(1.00283 -0.000554421 0)
(1.00242 -0.000619023 0)
(1.0029 0.000119622 0)
(1.00388 -0.00150603 0)
(1.00338 -0.000605029 0)
(1.00395 -0.000299552 0)
(1.00488 -0.000531523 0)
(1.00471 0.000734015 0)
(1.00483 0.00194206 0)
(1.00538 0.00291967 0)
(1.0055 0.00469329 0)
(1.00536 0.00674483 0)
(1.00527 0.00857741 0)
(1.00001 -0.000398933 0)
(0.998957 0.000901502 0)
(1.00176 0.00110182 0)
(1.00204 -0.000242995 0)
(1.0009 0.000767506 0)
(1.00134 -0.00092034 0)
(1.00182 0.000693292 0)
(1.00276 -0.000489542 0)
(1.00244 -0.000703963 0)
(1.00285 6.9727e-05 0)
(1.00384 -0.00143777 0)
(1.00346 -0.00067763 0)
(1.00397 -0.000168906 0)
(1.00496 -0.000369149 0)
(1.00491 0.000829565 0)
(1.00502 0.00215743 0)
(1.00564 0.00312179 0)
(1.00588 0.00473963 0)
(1.00579 0.00674064 0)
(1.00567 0.00855946 0)
(1.00002 -0.000413051 0)
(0.998991 0.000970172 0)
(1.00171 0.000965364 0)
(1.00202 -0.000190467 0)
(1.00085 0.000692365 0)
(1.00132 -0.000845574 0)
(1.00181 0.000555196 0)
(1.00268 -0.000429545 0)
(1.00245 -0.000775717 0)
(1.00281 1.99946e-05 0)
(1.0038 -0.00134683 0)
(1.00353 -0.000721273 0)
(1.00399 -2.68417e-05 0)
(1.00504 -0.00015966 0)
(1.00512 0.000929525 0)
(1.00523 0.00234975 0)
(1.00588 0.00333256 0)
(1.00625 0.00479776 0)
(1.00622 0.00670418 0)
(1.00608 0.00849812 0)
(1.00004 -0.000429136 0)
(0.99902 0.00104202 0)
(1.00166 0.000841555 0)
(1.002 -0.000166222 0)
(1.00081 0.000638902 0)
(1.0013 -0.000790165 0)
(1.00181 0.000428323 0)
(1.00261 -0.000373113 0)
(1.00246 -0.000832685 0)
(1.00277 -2.45854e-05 0)
(1.00375 -0.00122935 0)
(1.00362 -0.000731206 0)
(1.00404 0.000124921 0)
(1.00512 7.69383e-05 0)
(1.00533 0.00102859 0)
(1.00546 0.00250267 0)
(1.00613 0.00353049 0)
(1.00661 0.00487006 0)
(1.00666 0.00665138 0)
(1.0065 0.00839709 0)
(1.00005 -0.00044509 0)
(0.999044 0.00110976 0)
(1.00161 0.000739034 0)
(1.00197 -0.000166018 0)
(1.00076 0.000600266 0)
(1.00127 -0.000740697 0)
(1.0018 0.000307348 0)
(1.00254 -0.000323835 0)
(1.00247 -0.000872326 0)
(1.00273 -6.05137e-05 0)
(1.00371 -0.00108626 0)
(1.00371 -0.000699321 0)
(1.0041 0.000274516 0)
(1.0052 0.000321404 0)
(1.00555 0.00113617 0)
(1.00571 0.00261323 0)
(1.00638 0.00370029 0)
(1.00696 0.00494741 0)
(1.00709 0.00659048 0)
(1.00692 0.00826143 0)
(1.00007 -0.000457881 0)
(0.999065 0.00116537 0)
(1.00155 0.000669708 0)
(1.00195 -0.000189131 0)
(1.00071 0.000572575 0)
(1.00124 -0.000694875 0)
(1.0018 0.000192211 0)
(1.00246 -0.000279246 0)
(1.00247 -0.00088933 0)
(1.00271 -8.55017e-05 0)
(1.00367 -0.000909012 0)
(1.0038 -0.000626658 0)
(1.00419 0.000417212 0)
(1.00527 0.000572891 0)
(1.00575 0.0012656 0)
(1.00597 0.00268885 0)
(1.00664 0.00383365 0)
(1.00729 0.00501639 0)
(1.0075 0.00652449 0)
(1.00733 0.00809996 0)
(1.00008 -0.000470905 0)
(0.999083 0.00120986 0)
(1.00147 0.000628206 0)
(1.00192 -0.000231923 0)
(1.00066 0.000547792 0)
(1.0012 -0.00065389 0)
(1.00179 7.98563e-05 0)
(1.00239 -0.000237667 0)
(1.00247 -0.00088482 0)
(1.0027 -9.77559e-05 0)
(1.00363 -0.000699819 0)
(1.0039 -0.00051834 0)
(1.00428 0.000552445 0)
(1.00535 0.000832185 0)
(1.00595 0.00141816 0)
(1.00624 0.00274164 0)
(1.0069 0.00392198 0)
(1.00762 0.00506141 0)
(1.00791 0.0064481 0)
(1.00774 0.00791767 0)
(1.0001 -0.000481171 0)
(0.999099 0.0012359 0)
(1.0014 0.000610854 0)
(1.00189 -0.000279783 0)
(1.00061 0.000514846 0)
(1.00115 -0.000615835 0)
(1.00179 -2.75129e-05 0)
(1.00231 -0.000194857 0)
(1.00246 -0.000855383 0)
(1.0027 -9.79324e-05 0)
(1.0036 -0.000474766 0)
(1.00399 -0.000375854 0)
(1.0044 0.000661408 0)
(1.00543 0.0010786 0)
(1.00614 0.00159062 0)
(1.00651 0.00278969 0)
(1.00718 0.00397007 0)
(1.00794 0.00507688 0)
(1.0083 0.00635749 0)
(1.00815 0.00771924 0)
(1.00011 -0.000487334 0)
(0.999114 0.00124117 0)
(1.00131 0.000614732 0)
(1.00186 -0.000319998 0)
(1.00056 0.000473503 0)
(1.00109 -0.000575829 0)
(1.00178 -0.000120443 0)
(1.00225 -0.000141746 0)
(1.00245 -0.000792362 0)
(1.00272 -8.33617e-05 0)
(1.00357 -0.000241997 0)
(1.00407 -0.00020216 0)
(1.00453 0.00074281 0)
(1.00552 0.0012893 0)
(1.00631 0.00177792 0)
(1.00677 0.00284958 0)
(1.00747 0.00399506 0)
(1.00826 0.00506861 0)
(1.00868 0.00625584 0)
(1.00854 0.00751347 0)
(1.00012 -0.000490781 0)
(0.99913 0.00122719 0)
(1.00122 0.000636257 0)
(1.00182 -0.000340015 0)
(1.00051 0.000431395 0)
(1.00103 -0.00053923 0)
(1.00178 -0.000200911 0)
(1.00219 -7.70833e-05 0)
(1.00244 -0.000692088 0)
(1.00275 -4.66593e-05 0)
(1.00356 -1.58029e-05 0)
(1.00415 -1.21035e-05 0)
(1.00466 0.000811361 0)
(1.00563 0.00145522 0)
(1.00648 0.00196481 0)
(1.00703 0.00292694 0)
(1.00775 0.00401123 0)
(1.00858 0.00504127 0)
(1.00905 0.00614337 0)
(1.00892 0.00730325 0)
(1.00013 -0.000491229 0)
(0.999147 0.00120264 0)
(1.00112 0.000666043 0)
(1.00178 -0.000346523 0)
(1.00047 0.000400073 0)
(1.00097 -0.000506322 0)
(1.00178 -0.000283059 0)
(1.00214 -8.14965e-06 0)
(1.00243 -0.000561027 0)
(1.00279 5.38866e-06 0)
(1.00356 0.000196128 0)
(1.00421 0.00019249 0)
(1.0048 0.000882747 0)
(1.00576 0.00157449 0)
(1.00665 0.00212685 0)
(1.00728 0.00301244 0)
(1.00804 0.00402527 0)
(1.00889 0.004999 0)
(1.0094 0.00601936 0)
(1.00929 0.00708725 0)
(1.00014 -0.000490135 0)
(0.999166 0.00117006 0)
(1.00102 0.000697723 0)
(1.00174 -0.000346956 0)
(1.00042 0.000393907 0)
(1.0009 -0.000459638 0)
(1.00179 -0.000365813 0)
(1.0021 6.21637e-05 0)
(1.00242 -0.000399357 0)
(1.00284 6.11119e-05 0)
(1.00357 0.000394479 0)
(1.00427 0.000423263 0)
(1.00493 0.000977923 0)
(1.0059 0.00165869 0)
(1.00682 0.00225251 0)
(1.00753 0.00308857 0)
(1.00831 0.00403309 0)
(1.00919 0.00494172 0)
(1.00975 0.00587981 0)
(1.00965 0.00686015 0)
(1.00015 -0.00048417 0)
(0.999187 0.00112806 0)
(1.00092 0.000726074 0)
(1.00169 -0.000339921 0)
(1.00038 0.000411323 0)
(1.00082 -0.000389412 0)
(1.0018 -0.000440354 0)
(1.00209 0.000129967 0)
(1.0024 -0.000203661 0)
(1.0029 0.0001262 0)
(1.00361 0.000564688 0)
(1.00432 0.000665221 0)
(1.00505 0.00109786 0)
(1.00605 0.00172335 0)
(1.00701 0.00233911 0)
(1.00777 0.00314164 0)
(1.00859 0.00402795 0)
(1.00949 0.00487039 0)
(1.01008 0.00572381 0)
(1.01 0.00661917 0)
(1.00016 -0.000477783 0)
(0.999209 0.00107923 0)
(1.00081 0.000750777 0)
(1.00164 -0.000329959 0)
(1.00034 0.000443551 0)
(1.00074 -0.00027986 0)
(1.00181 -0.000496739 0)
(1.00209 0.000179143 0)
(1.00239 7.50276e-06 0)
(1.00295 0.000216981 0)
(1.00366 0.000702335 0)
(1.00437 0.000905065 0)
(1.00516 0.0012428 0)
(1.0062 0.00178575 0)
(1.0072 0.00238969 0)
(1.00801 0.00316612 0)
(1.00885 0.00400649 0)
(1.00977 0.00478928 0)
(1.01039 0.00555789 0)
(1.01033 0.00636792 0)
(1.00016 -0.000464013 0)
(0.999234 0.00101816 0)
(1.00071 0.00077508 0)
(1.00159 -0.000323005 0)
(1.00031 0.000482245 0)
(1.00064 -0.000122218 0)
(1.00181 -0.00051304 0)
(1.00212 0.000210044 0)
(1.00238 0.000216499 0)
(1.003 0.000328858 0)
(1.00373 0.00080868 0)
(1.00443 0.00112493 0)
(1.00526 0.0014222 0)
(1.00634 0.00186664 0)
(1.00739 0.00242187 0)
(1.00826 0.00316501 0)
(1.00912 0.00396774 0)
(1.01004 0.00470019 0)
(1.01069 0.00538863 0)
(1.01065 0.00611106 0)
(1.00017 -0.000448197 0)
(0.99926 0.000951184 0)
(1.0006 0.000805754 0)
(1.00154 -0.000317331 0)
(1.00028 0.000525836 0)
(1.00054 6.33268e-05 0)
(1.00181 -0.000482169 0)
(1.00216 0.000230161 0)
(1.00238 0.000420621 0)
(1.00304 0.000457077 0)
(1.00381 0.000885822 0)
(1.0045 0.0013022 0)
(1.00535 0.00161834 0)
(1.00647 0.00197409 0)
(1.00758 0.00245418 0)
(1.00851 0.00314596 0)
(1.00939 0.00391194 0)
(1.0103 0.00460314 0)
(1.01097 0.00522023 0)
(1.01095 0.00585496 0)
(1.00017 -0.000430281 0)
(0.99929 0.000879231 0)
(1.00049 0.000838319 0)
(1.00149 -0.000308833 0)
(1.00027 0.000568014 0)
(1.00043 0.000279122 0)
(1.00179 -0.000401748 0)
(1.00222 0.000249123 0)
(1.00239 0.000614844 0)
(1.00307 0.000610882 0)
(1.0039 0.000946104 0)
(1.00459 0.00143613 0)
(1.00543 0.00180174 0)
(1.00658 0.00210495 0)
(1.00776 0.00249905 0)
(1.00875 0.00311797 0)
(1.00965 0.0038374 0)
(1.01056 0.00449243 0)
(1.01123 0.00504864 0)
(1.01123 0.00560008 0)
(1.00017 -0.00040372 0)
(0.999322 0.000805707 0)
(1.00038 0.000864315 0)
(1.00144 -0.000290998 0)
(1.00028 0.00059671 0)
(1.00033 0.000521073 0)
(1.00175 -0.000266885 0)
(1.00229 0.000281092 0)
(1.00241 0.00079726 0)
(1.00309 0.000789461 0)
(1.00398 0.00100428 0)
(1.00471 0.00151928 0)
(1.00553 0.00195304 0)
(1.00668 0.00224448 0)
(1.00792 0.00256409 0)
(1.00898 0.0030951 0)
(1.00991 0.00375196 0)
(1.01081 0.00436851 0)
(1.01148 0.004874 0)
(1.01149 0.00534972 0)
(1.00016 -0.000377822 0)
(0.999357 0.000731533 0)
(1.00027 0.000899233 0)
(1.00138 -0.000262877 0)
(1.0003 0.000612234 0)
(1.00022 0.000768259 0)
(1.0017 -7.29911e-05 0)
(1.00237 0.000319751 0)
(1.00245 0.00097067 0)
(1.0031 0.000996008 0)
(1.00406 0.00109004 0)
(1.00483 0.00155548 0)
(1.00564 0.00205789 0)
(1.00677 0.00236894 0)
(1.00806 0.00263571 0)
(1.00919 0.00307341 0)
(1.01017 0.00365281 0)
(1.01105 0.0042233 0)
(1.01171 0.00468583 0)
(1.01172 0.00509606 0)
(1.00016 -0.000344714 0)
(0.999395 0.000650864 0)
(1.00017 0.000941008 0)
(1.00132 -0.000231234 0)
(1.00034 0.000614522 0)
(1.00013 0.00101392 0)
(1.00162 0.000171254 0)
(1.00244 0.000363384 0)
(1.00251 0.00111493 0)
(1.0031 0.00122904 0)
(1.00411 0.00121468 0)
(1.00496 0.00157933 0)
(1.00577 0.00211189 0)
(1.00687 0.00246706 0)
(1.00818 0.0027026 0)
(1.00938 0.00305143 0)
(1.0104 0.00354297 0)
(1.01129 0.00405787 0)
(1.01192 0.00447975 0)
(1.01193 0.00483441 0)
(1.00015 -0.000302206 0)
(0.999437 0.000558335 0)
(1.00006 0.000989547 0)
(1.00126 -0.000184401 0)
(1.0004 0.000603676 0)
(1.00006 0.00125468 0)
(1.00152 0.000453835 0)
(1.0025 0.000432081 0)
(1.00259 0.0012187 0)
(1.00309 0.00147672 0)
(1.00413 0.0013802 0)
(1.00508 0.00162099 0)
(1.00591 0.00211972 0)
(1.00697 0.00252029 0)
(1.00828 0.00275029 0)
(1.00954 0.00302655 0)
(1.01061 0.00342954 0)
(1.01151 0.00388076 0)
(1.01212 0.00426112 0)
(1.01211 0.00456726 0)
(1.00014 -0.00025687 0)
(0.999484 0.000464858 0)
(0.999967 0.00103873 0)
(1.00118 -0.00010365 0)
(1.00048 0.000563754 0)
(1.00001 0.00148019 0)
(1.00139 0.000784042 0)
(1.00255 0.000541554 0)
(1.0027 0.00128261 0)
(1.0031 0.00170264 0)
(1.00413 0.00159774 0)
(1.00517 0.00169878 0)
(1.00605 0.00211339 0)
(1.00709 0.00252678 0)
(1.00837 0.0027684 0)
(1.00967 0.00299305 0)
(1.0108 0.00331414 0)
(1.0117 0.00369554 0)
(1.0123 0.0040308 0)
(1.01227 0.00429233 0)
(1.00013 -0.000206141 0)
(0.999536 0.000377671 0)
(0.999882 0.00107653 0)
(1.0011 1.52241e-05 0)
(1.00057 0.000502283 0)
(0.999997 0.0016557 0)
(1.00125 0.00115074 0)
(1.00256 0.000700591 0)
(1.00281 0.0013212 0)
(1.00313 0.00187885 0)
(1.00411 0.00184777 0)
(1.00522 0.00182207 0)
(1.00617 0.00212532 0)
(1.0072 0.00250617 0)
(1.00846 0.00275581 0)
(1.00978 0.0029476 0)
(1.01095 0.00319803 0)
(1.01188 0.00350846 0)
(1.01246 0.00379387 0)
(1.0124 0.0040127 0)
(1.00011 -0.000151381 0)
(0.999591 0.000294963 0)
(0.999811 0.00110952 0)
(1.001 0.000165559 0)
(1.00067 0.000462538 0)
(1.00003 0.00176039 0)
(1.00111 0.00152705 0)
(1.00252 0.000928695 0)
(1.00293 0.00136185 0)
(1.00319 0.00201025 0)
(1.00407 0.00208917 0)
(1.00523 0.00199782 0)
(1.00627 0.00216855 0)
(1.00731 0.00248034 0)
(1.00855 0.00271342 0)
(1.00987 0.00287804 0)
(1.01107 0.00306909 0)
(1.01202 0.00331208 0)
(1.01259 0.00354615 0)
(1.01251 0.00372404 0)
(1.0001 -9.60564e-05 0)
(0.999651 0.000220799 0)
(0.999759 0.00113425 0)
(1.00089 0.00034927 0)
(1.00077 0.000456106 0)
(1.0001 0.00180504 0)
(1.00098 0.00187883 0)
(1.00245 0.00123808 0)
(1.00303 0.00143133 0)
(1.00327 0.00209047 0)
(1.00405 0.00229411 0)
(1.00521 0.00220565 0)
(1.00632 0.00225537 0)
(1.0074 0.00247484 0)
(1.00861 0.00266469 0)
(1.00993 0.00279138 0)
(1.01116 0.00292619 0)
(1.01214 0.00310358 0)
(1.0127 0.00328563 0)
(1.01259 0.0034237 0)
(1.00008 -3.96633e-05 0)
(0.999712 0.000163493 0)
(0.999731 0.00113712 0)
(1.00078 0.000563767 0)
(1.00086 0.000484337 0)
(1.00022 0.00179748 0)
(1.00088 0.00217966 0)
(1.00233 0.00159922 0)
(1.0031 0.00157339 0)
(1.00338 0.00213861 0)
(1.00406 0.00246091 0)
(1.00518 0.00240873 0)
(1.00633 0.00238267 0)
(1.00745 0.00249844 0)
(1.00866 0.0026267 0)
(1.00997 0.00270038 0)
(1.01122 0.00277286 0)
(1.01221 0.00288192 0)
(1.01278 0.00300839 0)
(1.01265 0.00310678 0)
(1.00007 1.0925e-05 0)
(0.999774 0.000135308 0)
(0.999729 0.00111179 0)
(1.00067 0.000790698 0)
(1.00093 0.000572894 0)
(1.00037 0.00174957 0)
(1.00082 0.00241549 0)
(1.0022 0.00197109 0)
(1.00311 0.00178943 0)
(1.00348 0.00219873 0)
(1.00408 0.00258184 0)
(1.00513 0.00259451 0)
(1.00631 0.0025307 0)
(1.00746 0.00255506 0)
(1.00867 0.00260848 0)
(1.00997 0.00261966 0)
(1.01123 0.00262033 0)
(1.01225 0.0026525 0)
(1.01282 0.00271351 0)
(1.01268 0.00276654 0)
(1.00006 5.59013e-05 0)
(0.999832 0.000141093 0)
(0.999752 0.00107272 0)
(1.00057 0.00100216 0)
(1.00097 0.000732459 0)
(1.00054 0.00170332 0)
(1.00082 0.00256755 0)
(1.00207 0.00233439 0)
(1.00309 0.00206098 0)
(1.00356 0.00230987 0)
(1.00412 0.00266733 0)
(1.00509 0.00275198 0)
(1.00626 0.00267737 0)
(1.00743 0.00263489 0)
(1.00864 0.00261334 0)
(1.00993 0.00255908 0)
(1.0112 0.00248422 0)
(1.01223 0.0024311 0)
(1.01282 0.00241284 0)
(1.01267 0.00240677 0)
(1.00004 9.48048e-05 0)
(0.999884 0.000176315 0)
(0.999793 0.00103825 0)
(1.00049 0.00118135 0)
(1.00099 0.00093849 0)
(1.0007 0.00170179 0)
(1.00087 0.00264003 0)
(1.00196 0.00265467 0)
(1.00302 0.00237682 0)
(1.00361 0.00248277 0)
(1.00417 0.00276536 0)
(1.00506 0.00288117 0)
(1.00619 0.00281637 0)
(1.00737 0.00272358 0)
(1.00857 0.00263507 0)
(1.00984 0.00251415 0)
(1.0111 0.00236377 0)
(1.01215 0.00222252 0)
(1.01275 0.00211506 0)
(1.01261 0.00203461 0)
(1.00003 0.000127926 0)
(0.999928 0.000227431 0)
(0.999847 0.0010108 0)
(1.00044 0.0013282 0)
(1.00099 0.00116476 0)
(1.00086 0.00175423 0)
(1.00096 0.00267457 0)
(1.00188 0.00290583 0)
(1.00294 0.00270608 0)
(1.00361 0.00270731 0)
(1.00419 0.00290592 0)
(1.00503 0.00300658 0)
(1.00611 0.00295037 0)
(1.00727 0.00281889 0)
(1.00846 0.00266956 0)
(1.0097 0.00248023 0)
(1.01094 0.00225395 0)
(1.012 0.00202328 0)
(1.01261 0.00182222 0)
(1.01248 0.00165631 0)
(1.00003 0.000155582 0)
(0.999964 0.000294993 0)
(0.99991 0.00099483 0)
(1.0004 0.00144227 0)
(1.00098 0.00139475 0)
(1.00099 0.00184914 0)
(1.00108 0.00270894 0)
(1.00185 0.00309149 0)
(1.00285 0.00301474 0)
(1.00358 0.00297024 0)
(1.00419 0.00309161 0)
(1.00499 0.00315679 0)
(1.00602 0.00309076 0)
(1.00714 0.00292608 0)
(1.0083 0.00271926 0)
(1.0095 0.00245942 0)
(1.01071 0.00215569 0)
(1.01176 0.00183325 0)
(1.01238 0.00153459 0)
(1.01227 0.00127627 0)
(1.00002 0.000177487 0)
(0.999993 0.000369805 0)
(0.999975 0.00100484 0)
(1.0004 0.00152305 0)
(1.00096 0.00161198 0)
(1.0011 0.001981 0)
(1.00121 0.00275745 0)
(1.00185 0.00323329 0)
(1.00277 0.00328177 0)
(1.00353 0.00325283 0)
(1.00416 0.00331554 0)
(1.00493 0.00334616 0)
(1.0059 0.0032551 0)
(1.00697 0.00305597 0)
(1.00808 0.00279188 0)
(1.00924 0.00246036 0)
(1.0104 0.00207332 0)
(1.01143 0.0016541 0)
(1.01205 0.00125045 0)
(1.01196 0.000889324 0)
(1.00001 0.000197156 0)
(1.00002 0.00044324 0)
(1.00004 0.00103723 0)
(1.00041 0.001587 0)
(1.00096 0.0018018 0)
(1.00118 0.00213448 0)
(1.00133 0.00283 0)
(1.00189 0.0033482 0)
(1.00272 0.00351194 0)