/*--------------------------------*- C++ -*----------------------------------*\
| =========                 |                                                 |
| \\      /  F ield         | OpenFOAM: The Open Source CFD Toolbox           |
|  \\    /   O peration     | Version:  v2012                                 |
|   \\  /    A nd           | Website:  www.openfoam.com                      |
|    \\/     M anipulation  |                                                 |
\*---------------------------------------------------------------------------*/
FoamFile
{
    version     2.0;
    format      ascii;
    class       volScalarField;
    location    "2";
    object      p;
}
// * * * * * * * * * * * * * * * * * * * * * * * * * * * * * * * * * * * * * //

dimensions      [0 2 -2 0 0 0 0];


internalField   nonuniform List<scalar> 
17600
(
3.65279e-09
-0.0028702
-0.00397463
-0.00382027
-0.00446213
-0.00412698
-0.0051344
-0.00589202
-0.00620763
-0.00642182
-0.00693148
-0.00710419
-0.0073512
-0.0073735
-0.00731433
-0.00675003
-0.00592444
-0.00451202
-0.00230171
0.00129625
1.09318e-06
-0.00287424
-0.00397314
-0.00382157
-0.00446175
-0.0041322
-0.00513305
-0.00589398
-0.00620638
-0.0064273
-0.0069293
-0.00710921
-0.00734775
-0.00738086
-0.00730822
-0.00676536
-0.00591173
-0.00455003
-0.00227825
0.00105198
7.1054e-07
-0.00288
-0.00396946
-0.00382321
-0.00446096
-0.0041383
-0.00513105
-0.00589702
-0.00620446
-0.00643315
-0.00692611
-0.00711524
-0.00734346
-0.00739073
-0.00730161
-0.00678513
-0.00589896
-0.00459927
-0.00226967
0.000661202
-2.54655e-06
-0.00288622
-0.00396419
-0.00382404
-0.00446013
-0.00414489
-0.00512934
-0.00590036
-0.00620229
-0.00643898
-0.00692335
-0.0071213
-0.00733977
-0.00740132
-0.00729614
-0.00680591
-0.0058899
-0.00464923
-0.00229561
0.000269263
-8.45864e-06
-0.00289285
-0.0039576
-0.00382401
-0.00445942
-0.00415224
-0.00512784
-0.00590402
-0.0061999
-0.00644522
-0.00692076
-0.0071277
-0.00733601
-0.00741304
-0.00729052
-0.00682858
-0.00588275
-0.004702
-0.00235381
-9.4985e-05
-1.65905e-05
-0.00289983
-0.00394983
-0.00382322
-0.00445885
-0.00416045
-0.00512638
-0.00590808
-0.00619726
-0.00645188
-0.00691789
-0.00713453
-0.0073318
-0.00742595
-0.00728464
-0.00685319
-0.00587822
-0.00475886
-0.00244174
-0.000437738
-2.65067e-05
-0.00290697
-0.0039411
-0.0038218
-0.00445839
-0.00416939
-0.00512482
-0.0059125
-0.00619433
-0.00645885
-0.00691466
-0.00714177
-0.00732724
-0.00743996
-0.00727918
-0.00687915
-0.00587869
-0.00481923
-0.00255901
-0.000763977
-3.77405e-05
-0.00291413
-0.00393159
-0.00381983
-0.00445791
-0.00417892
-0.00512308
-0.00591728
-0.00619118
-0.00646611
-0.00691113
-0.00714944
-0.00732255
-0.00745492
-0.00727495
-0.00690573
-0.00588657
-0.00488212
-0.00270497
-0.00107918
-4.9873e-05
-0.0029213
-0.00392142
-0.00381739
-0.00445733
-0.00418895
-0.00512115
-0.00592242
-0.00618787
-0.00647364
-0.0069074
-0.00715754
-0.00731799
-0.00747059
-0.00727279
-0.00693214
-0.00590383
-0.00494695
-0.00287799
-0.00138913
-6.2608e-05
-0.00292852
-0.00391067
-0.00381456
-0.00445662
-0.00419938
-0.00511906
-0.00592799
-0.00618445
-0.00648142
-0.00690356
-0.00716597
-0.00731389
-0.00748656
-0.00727361
-0.00695768
-0.00593199
-0.00501392
-0.00307532
-0.00169918
-7.57722e-05
-0.00293586
-0.00389941
-0.00381143
-0.00445578
-0.00421014
-0.00511685
-0.00593397
-0.00618097
-0.00648937
-0.00689978
-0.00717457
-0.00731066
-0.00750229
-0.00727839
-0.00698185
-0.00597222
-0.00508418
-0.00329292
-0.00201339
-8.9275e-05
-0.00294339
-0.00388774
-0.00380806
-0.00445482
-0.00422117
-0.00511456
-0.00594036
-0.00617749
-0.00649737
-0.00689623
-0.00718306
-0.0073088
-0.00751722
-0.00728798
-0.00700454
-0.00602529
-0.00516104
-0.00352591
-0.00233428
-0.000103073
-0.00295114
-0.00387572
-0.00380447
-0.00445376
-0.00423239
-0.00511226
-0.0059471
-0.00617409
-0.00650524
-0.00689318
-0.00719111
-0.00730889
-0.00753092
-0.00730287
-0.00702638
-0.006091
-0.00524727
-0.00376981
-0.00266298
-0.000117149
-0.00295909
-0.00386345
-0.00380062
-0.00445263
-0.00424373
-0.00510999
-0.00595411
-0.00617093
-0.00651274
-0.00689091
-0.00719838
-0.00731142
-0.00754322
-0.0073233
-0.00704852
-0.00616808
-0.00534579
-0.00402154
-0.00299958
-0.000131504
-0.00296723
-0.00385098
-0.00379647
-0.0044515
-0.00425512
-0.00510785
-0.00596128
-0.00616819
-0.0065196
-0.00688976
-0.0072045
-0.00731677
-0.00755411
-0.00734942
-0.00707271
-0.00625469
-0.00545873
-0.00427926
-0.00334332
-0.000146155
-0.00297549
-0.0038384
-0.00379193
-0.00445042
-0.00426644
-0.00510594
-0.00596847
-0.00616609
-0.00652554
-0.00689007
-0.00720923
-0.00732525
-0.00756372
-0.00738122
-0.00710201
-0.00634922
-0.00558742
-0.00454182
-0.0036927
-0.00016113
-0.0029838
-0.00382578
-0.00378691
-0.00444949
-0.00427758
-0.00510441
-0.00597547
-0.00616491
-0.00653027
-0.0068921
-0.00721251
-0.00733676
-0.00757286
-0.00741813
-0.00713832
-0.00645112
-0.00573251
-0.0048088
-0.00404593
-0.000176472
-0.00299204
-0.00381324
-0.00378129
-0.00444881
-0.00428842
-0.00510342
-0.00598207
-0.00616487
-0.00653356
-0.00689598
-0.00721451
-0.00735087
-0.00758294
-0.007459
-0.00718272
-0.00656076
-0.0058941
-0.00508053
-0.004401
-0.000192229
-0.00300009
-0.00380089
-0.00377492
-0.00444852
-0.00429878
-0.0051032
-0.00598808
-0.00616614
-0.00653528
-0.00690172
-0.0072156
-0.00736692
-0.00759529
-0.00750318
-0.00723645
-0.00667908
-0.00607188
-0.00535786
-0.00475585
-0.000208467
-0.00300779
-0.00378887
-0.00376765
-0.00444879
-0.00430844
-0.00510389
-0.00599341
-0.00616887
-0.00653539
-0.00690907
-0.00721645
-0.00738421
-0.00761093
-0.00755065
-0.00730022
-0.00680687
-0.00626545
-0.00564217
-0.0051092
-0.000225265
-0.00301493
-0.00377737
-0.00375929
-0.00444981
-0.00431722
-0.0051056
-0.00599798
-0.00617311
-0.00653408
-0.00691747
-0.00721784
-0.00740216
-0.00763063
-0.00760188
-0.00737415
-0.00694456
-0.00647428
-0.00593514
-0.00546109
-0.000242721
-0.00302128
-0.00376657
-0.00374961
-0.0044518
-0.00432498
-0.00510845
-0.00600168
-0.00617871
-0.00653188
-0.00692598
-0.00722069
-0.00742043
-0.00765479
-0.00765812
-0.00745875
-0.00709282
-0.00669759
-0.00623817
-0.00581285
-0.000260958
-0.00302653
-0.00375672
-0.00373839
-0.00445493
-0.00433152
-0.00511245
-0.00600459
-0.00618524
-0.00652927
-0.00693361
-0.00722571
-0.0074378
-0.00768329
-0.00772055
-0.00755518
-0.00725258
-0.00693448
-0.00655231
-0.00616677
-0.000280127
-0.00303036
-0.00374809
-0.00372538
-0.00445935
-0.00433707
-0.00511749
-0.00600719
-0.00619196
-0.00652631
-0.00693963
-0.00723376
-0.00745651
-0.00771532
-0.00778924
-0.00766467
-0.00742471
-0.00718442
-0.00687885
-0.00652606
-0.000300398
-0.00303233
-0.00374095
-0.00371042
-0.00446512
-0.0043417
-0.00512592
-0.00601026
-0.00619797
-0.00652589
-0.00694164
-0.00724453
-0.00747692
-0.00775024
-0.00786362
-0.00778761
-0.00760979
-0.00744689
-0.00721885
-0.00689541
-0.000322009
-0.00303197
-0.00373556
-0.00369338
-0.0044722
-0.0043455
-0.00513202
-0.00601469
-0.00620243
-0.00652794
-0.00694281
-0.00725569
-0.00750146
-0.00778816
-0.00794374
-0.00792371
-0.00780852
-0.00771952
-0.00757184
-0.00728325
-0.000345253
-0.0030287
-0.00373214
-0.00367423
-0.00448042
-0.00434894
-0.00513727
-0.00602147
-0.00620464
-0.00653347
-0.00694397
-0.00726525
-0.00753003
-0.00782947
-0.00803029
-0.00807296
-0.00802262
-0.00799957
-0.00792843
-0.00769327
-0.00037041
-0.00302197
-0.00373083
-0.00365317
-0.00448936
-0.00435298
-0.00514033
-0.00603146
-0.00620411
-0.00653902
-0.00694655
-0.00727344
-0.00756292
-0.00787697
-0.00812494
-0.00823633
-0.00825192
-0.00828786
-0.0082888
-0.00811084
-0.000397856
-0.00301117
-0.00373159
-0.0036305
-0.00449831
-0.00435893
-0.0051401
-0.00604495
-0.00620114
-0.00654405
-0.00695229
-0.00728029
-0.00760165
-0.00794102
-0.00822896
-0.00840905
-0.00849347
-0.0085862
-0.00865172
-0.00852554
-0.00042802
-0.00299577
-0.00373444
-0.0036066
-0.00450624
-0.00436822
-0.00513588
-0.00606205
-0.00619727
-0.00654801
-0.00696303
-0.00728942
-0.00764993
-0.00802093
-0.00833878
-0.00858401
-0.00874449
-0.00889634
-0.00901703
-0.00893518
-0.000461248
-0.0029754
-0.00374048
-0.00358219
-0.004512
-0.00438201
-0.00512727
-0.00608254
-0.00619434
-0.00655049
-0.00698284
-0.00730629
-0.00770917
-0.00811185
-0.0084551
-0.00875787
-0.00900167
-0.0092187
-0.00938649
-0.0093385
-0.000497848
-0.00294978
-0.00374504
-0.00355838
-0.00451461
-0.00440088
-0.00511446
-0.006106
-0.0061955
-0.00655139
-0.00701403
-0.00733015
-0.00776025
-0.00821152
-0.0085812
-0.00893153
-0.00926118
-0.00955114
-0.00976173
-0.00973537
-0.000538059
-0.00291855
-0.00374893
-0.00353617
-0.00451354
-0.00442542
-0.00509832
-0.00613228
-0.0062052
-0.00655182
-0.00705524
-0.00736079
-0.00780668
-0.00831678
-0.00872045
-0.00910844
-0.00951935
-0.0098892
-0.0101421
-0.010127
-0.000581976
-0.00288185
-0.00375104
-0.00351612
-0.00450857
-0.00445611
-0.0050802
-0.00616122
-0.00622683
-0.00655306
-0.0070995
-0.0074
-0.00784918
-0.00842316
-0.00887376
-0.00929254
-0.00977361
-0.0102272
-0.0105261
-0.0105157
-0.000629587
-0.0028403
-0.00375013
-0.00349846
-0.00449971
-0.00449334
-0.00506006
-0.0061921
-0.00626116
-0.00654715
-0.00714292
-0.00745035
-0.00789115
-0.00852673
-0.00903907
-0.0094873
-0.0100238
-0.0105599
-0.0109112
-0.0109031
-0.000680722
-0.00279469
-0.00374531
-0.00348312
-0.00448719
-0.00453794
-0.00504804
-0.00622274
-0.00630795
-0.00653928
-0.00717938
-0.00751258
-0.00793723
-0.00862498
-0.0092124
-0.00969477
-0.0102722
-0.0108836
-0.0112936
-0.0112899
-0.000735071
-0.00274584
-0.00373603
-0.00347017
-0.00447116
-0.00459187
-0.00504224
-0.00625
-0.00636625
-0.00653232
-0.00720581
-0.00758526
-0.00799245
-0.0087174
-0.0093885
-0.00991504
-0.0105225
-0.0111968
-0.0116687
-0.0116749
-0.00079228
-0.00269424
-0.00372213
-0.00346021
-0.00445192
-0.00465451
-0.00504465
-0.00627101
-0.00643419
-0.00653053
-0.00722224
-0.00766555
-0.00806048
-0.00880536
-0.00956235
-0.0101466
-0.0107785
-0.0115002
-0.0120318
-0.0120551
-0.000851834
-0.00264125
-0.00370398
-0.00345414
-0.00442973
-0.00472419
-0.00505708
-0.00628382
-0.00650951
-0.00653853
-0.00722891
-0.00774888
-0.00814295
-0.0088919
-0.00973033
-0.0103865
-0.0110429
-0.0117952
-0.012379
-0.0124261
-0.000913083
-0.00258764
-0.00368238
-0.00345313
-0.00440415
-0.00479832
-0.00508177
-0.00628839
-0.00658919
-0.00656024
-0.00722771
-0.00782995
-0.00823981
-0.00898134
-0.00989033
-0.0106298
-0.0113157
-0.0120838
-0.0127076
-0.012783
-0.000975506
-0.00253374
-0.00365794
-0.00345894
-0.00437546
-0.0048734
-0.00512008
-0.00628601
-0.006669
-0.00659778
-0.00722266
-0.00790445
-0.00834972
-0.00907792
-0.0100414
-0.0108702
-0.0115944
-0.0123685
-0.013018
-0.013122
-0.00103867
-0.00247991
-0.00363092
-0.00347376
-0.0043453
-0.00494524
-0.00517186
-0.0062724
-0.00674449
-0.00665132
-0.00721876
-0.00796957
-0.00846942
-0.00918481
-0.0101844
-0.0111017
-0.011875
-0.0126521
-0.0133126
-0.0134406
-0.00110217
-0.00242655
-0.00360144
-0.00349948
-0.00431562
-0.00501018
-0.00523673
-0.00626536
-0.00681185
-0.00671917
-0.0072206
-0.00802449
-0.00859448
-0.00930383
-0.0103217
-0.01132
-0.0121532
-0.012936
-0.0135951
-0.0137379
-0.00116563
-0.00237406
-0.0035693
-0.00353697
-0.00428926
-0.00506577
-0.00531284
-0.00626149
-0.00686837
-0.00679743
-0.00723141
-0.0080704
-0.00872046
-0.0094351
-0.0104573
-0.0115233
-0.0124236
-0.0132194
-0.0138684
-0.0140141
-0.00122877
-0.0023232
-0.00353406
-0.00358638
-0.00426619
-0.00511056
-0.00539646
-0.00626469
-0.00691451
-0.0068815
-0.00725289
-0.00810894
-0.00884268
-0.00957659
-0.0105943
-0.0117117
-0.0126814
-0.0134995
-0.0141343
-0.0142709
-0.00129138
-0.00227511
-0.00349534
-0.00364768
-0.00426346
-0.00514413
-0.00548297
-0.00627728
-0.00695232
-0.00696759
-0.0072857
-0.00814169
-0.00895687
-0.00972473
-0.0107349
-0.0118869
-0.0129226
-0.0137716
-0.0143933
-0.0145106
-0.00135328
-0.00223131
-0.00345305
-0.00371926
-0.00427794
-0.00516782
-0.00556733
-0.0062993
-0.00698408
-0.00705332
-0.00732935
-0.0081704
-0.00905979
-0.00987506
-0.0108801
-0.0120513
-0.0131445
-0.0140308
-0.0146441
-0.0147361
-0.00141432
-0.00219401
-0.00340765
-0.00379762
-0.00431285
-0.00518411
-0.00564436
-0.00632922
-0.00701283
-0.00713725
-0.00738283
-0.00819712
-0.00914926
-0.0100225
-0.0110289
-0.012207
-0.0133458
-0.0142726
-0.0148847
-0.0149494
-0.00147442
-0.00216508
-0.0033607
-0.00387831
-0.00436896
-0.00519991
-0.00571093
-0.00636489
-0.00704113
-0.00721827
-0.00744478
-0.00822388
-0.00922412
-0.0101612
-0.0111784
-0.0123555
-0.0135271
-0.014494
-0.0151125
-0.0151518
-0.00153353
-0.00214587
-0.00331482
-0.00395668
-0.00444458
-0.00522154
-0.00576752
-0.00640298
-0.00706954
-0.00729541
-0.00751358
-0.00825277
-0.0092844
-0.0102856
-0.011323
-0.0124967
-0.0136896
-0.0146933
-0.0153248
-0.0153432
-0.00159193
-0.00213771
-0.0032725
-0.00402935
-0.00453706
-0.00525463
-0.00581633
-0.00643956
-0.00709684
-0.00736787
-0.00758734
-0.00828562
-0.0093316
-0.010391
-0.011456
-0.012628
-0.0138336
-0.014869
-0.0155186
-0.0155227
-0.00165058
-0.00214155
-0.00323593
-0.00409359
-0.00464252
-0.00530302
-0.00586064
-0.00647262
-0.00712153
-0.00743419
-0.00766323
-0.00832261
-0.00936832
-0.010476
-0.0115728
-0.0127457
-0.013957
-0.0150184
-0.0156896
-0.0156877
-0.0017104
-0.00215812
-0.00320806
-0.0041488
-0.00475557
-0.00536838
-0.00590532
-0.00650234
-0.00714199
-0.00749238
-0.0077372
-0.00836182
-0.00939626
-0.0105414
-0.0116711
-0.0128466
-0.0140571
-0.0151372
-0.0158316
-0.0158332
-0.00177212
-0.00218772
-0.0031932
-0.00419612
-0.00487042
-0.00544999
-0.00595531
-0.00653017
-0.00715734
-0.00754038
-0.00780477
-0.00839947
-0.00941481
-0.010587
-0.0117489
-0.0129284
-0.0141321
-0.0152219
-0.0159382
-0.0159519
-0.00183677
-0.00223007
-0.00319383
-0.00423827
-0.00498235
-0.00554565
-0.00601409
-0.00655809
-0.00716825
-0.00757695
-0.00786175
-0.00843075
-0.00942118
-0.0106104
-0.0118027
-0.0129883
-0.0141813
-0.0152705
-0.0160044
-0.0160357
-0.00190624
-0.00228475
-0.00321123
-0.00427974
-0.00508905
-0.00565169
-0.00608328
-0.00658803
-0.00717578
-0.00760231
-0.00790545
-0.00845092
-0.00941117
-0.0106075
-0.0118273
-0.0130221
-0.0142038
-0.0152839
-0.0160278
-0.0160776
-0.00198272
-0.00235131
-0.00324619
-0.00432496
-0.00519088
-0.00576386
-0.00616254
-0.00662196
-0.00718031
-0.00761704
-0.00793454
-0.00845636
-0.00938055
-0.0105734
-0.0118158
-0.0130232
-0.0141956
-0.0152615
-0.0160064
-0.016073
-0.00206813
-0.00243016
-0.00329924
-0.00437784
-0.0052896
-0.00587925
-0.00625015
-0.00666095
-0.00718231
-0.0076207
-0.00794811
-0.00844456
-0.00932579
-0.0105032
-0.0117609
-0.0129825
-0.0141487
-0.0151997
-0.0159395
-0.0160182
-0.00216449
-0.00252233
-0.00337071
-0.00444159
-0.0053873
-0.00599714
-0.00634492
-0.00670448
-0.00718193
-0.00761267
-0.00794488
-0.00841367
-0.00924388
-0.0103923
-0.011655
-0.0128896
-0.0140539
-0.0150914
-0.0158234
-0.0159113
-0.00227417
-0.00262859
-0.0034607
-0.00451872
-0.0054868
-0.00611798
-0.0064472
-0.00675272
-0.00717869
-0.00759209
-0.00792236
-0.00836085
-0.00913203
-0.0102356
-0.0114897
-0.0127332
-0.0138988
-0.0149262
-0.0156507
-0.0157466
-0.00239947
-0.00275044
-0.00356961
-0.00461144
-0.00559132
-0.00624202
-0.00655673
-0.00680668
-0.00717261
-0.00755813
-0.00787814
-0.00828191
-0.00898653
-0.0100282
-0.0112557
-0.0124999
-0.0136675
-0.014689
-0.0154088
-0.0155132
-0.00254293
-0.00288969
-0.0036984
-0.0047217
-0.00570351
-0.00637015
-0.00667339
-0.00686761
-0.00716523
-0.00751062
-0.00781059
-0.00817285
-0.00880146
-0.00976352
-0.0109429
-0.0121732
-0.0133395
-0.0143576
-0.0150757
-0.0151884
-0.00270749
-0.00304877
-0.00384821
-0.00485116
-0.00582524
-0.00650307
-0.00679833
-0.00693793
-0.00716004
-0.00745162
-0.00771892
-0.00803032
-0.00856997
-0.00943184
-0.0105378
-0.0117316
-0.0128872
-0.013903
-0.0146166
-0.0147415
-0.00289641
-0.00323072
-0.00402037
-0.00500136
-0.00595888
-0.00664114
-0.00693191
-0.00702107
-0.00716216
-0.00738667
-0.00760619
-0.00785262
-0.00828605
-0.00902088
-0.0100212
-0.0111462
-0.0122644
-0.0132671
-0.0139853
-0.0141373
-0.00311458
-0.00343854
-0.00421632
-0.00517384
-0.00610758
-0.00678507
-0.00707338
-0.0071201
-0.00717896
-0.00732496
-0.00748271
-0.00764566
-0.00794719
-0.00851875
-0.00936571
-0.0103786
-0.0114285
-0.0123959
-0.0131205
-0.0133213
-0.00336528
-0.00367595
-0.00443719
-0.00537079
-0.00627406
-0.00693607
-0.00722122
-0.0072366
-0.00721926
-0.00727898
-0.00736437
-0.00743361
-0.00756537
-0.00791168
-0.00852974
-0.00936029
-0.0102775
-0.0111797
-0.0119147
-0.0122072
-0.00365042
-0.00394722
-0.00468478
-0.00559661
-0.00646143
-0.00709625
-0.00737447
-0.00736914
-0.00729201
-0.00726169
-0.00726232
-0.00724136
-0.00720373
-0.00723656
-0.00748334
-0.0079681
-0.00863701
-0.00938523
-0.0101338
-0.0106276
-0.00397205
-0.00425076
-0.0049696
-0.00585392
-0.0066725
-0.00726719
-0.0075324
-0.00751728
-0.00740095
-0.00729414
-0.00718557
-0.00707385
-0.00695066
-0.00673408
-0.00638267
-0.00598283
-0.00573849
-0.00585403
-0.00635041
-0.00705283
-0.00433808
-0.00459204
-0.0052958
-0.00614289
-0.00690526
-0.00744745
-0.00769327
-0.0076769
-0.00754784
-0.00740091
-0.00718698
-0.0068653
-0.0066112
-0.00664134
-0.00656726
-0.0057432
-0.00414264
-0.00247573
-0.00123873
-0.000574198
-0.00476754
-0.0049956
-0.00565727
-0.00645339
-0.00714762
-0.0076293
-0.00785281
-0.00784095
-0.00769313
-0.00754638
-0.00740111
-0.00680314
-0.00546821
-0.00396983
-0.00269387
-0.00163941
-0.000600636
0.000466521
0.00135905
0.00166519
-0.00526711
-0.0054678
-0.00606223
-0.00678029
-0.00737837
-0.00779008
-0.00798969
-0.00799136
-0.00778079
-0.00705482
-0.00583617
-0.00455445
-0.00341942
-0.00246856
-0.00159813
-0.000680755
0.000332685
0.00135069
0.00212572
0.00227785
-0.00584477
-0.00600911
-0.00652402
-0.00712188
-0.00757123
-0.00785404
-0.00799176
-0.00760957
-0.00667412
-0.00563516
-0.00471289
-0.00390595
-0.00310808
-0.00217432
-0.00109885
6.69889e-05
0.00124337
0.00230483
0.00303979
0.00310123
-0.00653515
-0.0066422
-0.00700182
-0.00743634
-0.00770121
-0.00754235
-0.00710388
-0.00652549
-0.00588924
-0.0052324
-0.00454234
-0.00374454
-0.00276404
-0.00162886
-0.000380855
0.000910662
0.00215425
0.00321934
0.00389393
0.00384972
-0.00734719
-0.00745022
-0.00743566
-0.00732143
-0.00713047
-0.00684278
-0.00650201
-0.00613568
-0.00566565
-0.00504382
-0.00426371
-0.00332428
-0.00223773
-0.00101983
0.000287821
0.00162165
0.00288381
0.00392833
0.00454036
0.0043987
-0.00809826
-0.00808455
-0.00767518
-0.00718174
-0.00676628
-0.00645715
-0.00618014
-0.00584776
-0.00537051
-0.0047048
-0.0038612
-0.00286629
-0.00173913
-0.00049275
0.000834159
0.0021701
0.00341363
0.00441949
0.00497289
0.00475607
-0.00868472
-0.00853355
-0.00792944
-0.00720821
-0.00660758
-0.00618448
-0.00585683
-0.00549481
-0.00499956
-0.00432671
-0.00347576
-0.00246576
-0.00132037
-6.50367e-05
0.00125812
0.00258085
0.00380248
0.00477674
0.00528778
0.00501923
-0.00913656
-0.00890356
-0.0081914
-0.00730877
-0.00652806
-0.00595816
-0.00554186
-0.00514462
-0.00465064
-0.00399163
-0.00314935
-0.00213812
-0.000985717
0.000274015
0.0015941
0.00290599
0.00410973
0.00505904
0.00553819
0.00523194
-0.00949956
-0.00920821
-0.0084116
-0.00740616
-0.0064839
-0.00578675
-0.00528302
-0.00484788
-0.00435096
-0.00370603
-0.00288004
-0.00187703
-0.00072273
0.000540451
0.00185938
0.00316338
0.00435277
0.00528232
0.00573741
0.00540416
-0.00977586
-0.00944733
-0.00858147
-0.00749235
-0.00647407
-0.00568188
-0.0051037
-0.00462376
-0.00410778
-0.00345906
-0.00263594
-0.00163735
-0.000488605
0.00076938
0.00208191
0.00337584
0.00455143
0.00546472
0.0059021
0.00555016
-0.00994987
-0.00960766
-0.00870831
-0.00757487
-0.00650833
-0.00566775
-0.00504346
-0.00452558
-0.00398362
-0.00331819
-0.00247931
-0.00146496
-0.000303723
0.000959137
0.00226685
0.00354924
0.00471119
0.00561268
0.00604184
0.00568464
0.00670657
0.00139949
-0.00630034
-0.0116011
-0.0127131
-0.011476
-0.00999673
-0.00898789
-0.00843074
-0.00816728
-0.00807944
-0.00809662
-0.00817745
-0.00829684
-0.00843578
-0.00857828
-0.00871477
-0.00884259
-0.00896139
-0.00907109
-0.0091733
-0.00927163
-0.00936964
-0.00946944
-0.00957154
-0.00967558
-0.00978151
-0.00989052
-0.010004
-0.0101218
-0.0102419
-0.0103626
-0.0104832
-0.0106042
-0.0107257
-0.0108467
-0.010966
-0.0110825
-0.0111962
-0.0113074
-0.0114163
-0.0115229
-0.0116269
-0.0117283
-0.0118272
-0.011924
-0.0120189
-0.012112
-0.0122037
-0.0122941
-0.0123834
-0.0124716
-0.012559
-0.0126456
-0.0127319
-0.0128184
-0.0129051
-0.0129917
-0.0130783
-0.0131646
-0.013251
-0.0133374
-0.0134237
-0.0135095
-0.0135947
-0.0136792
-0.013763
-0.0138461
-0.0139288
-0.0140112
-0.0140932
-0.014175
-0.0142569
-0.0143388
-0.0144208
-0.0145029
-0.0145848
-0.0146666
-0.0147484
-0.0148304
-0.0149126
-0.0149949
-0.0150777
-0.0151614
-0.0152461
-0.0153317
-0.0154177
-0.0155042
-0.015591
-0.0156781
-0.0157656
-0.0158533
-0.0159415
-0.0160303
-0.0161199
-0.0162103
-0.0163015
-0.016393
-0.0164847
-0.0165766
-0.0166688
-0.0167615
-0.0168547
-0.0169482
-0.0170423
-0.017137
-0.0172321
-0.0173275
-0.017423
-0.0175188
-0.0176147
-0.0177111
-0.0178078
-0.0179051
-0.0180026
-0.0181006
-0.0181989
-0.0182976
-0.0183964
-0.0184954
-0.018595
-0.0186948
-0.0187954
-0.0188962
-0.0189977
-0.019099
-0.0192008
-0.0193026
-0.0194053
-0.0195083
-0.019612
-0.0197159
-0.01982
-0.0199244
-0.0200292
-0.0201348
-0.0202407
-0.0203471
-0.0204534
-0.0205603
-0.0206677
-0.0207751
-0.0208827
-0.0209905
-0.0210989
-0.0212068
-0.0213153
-0.0214236
-0.0215324
-0.0216405
-0.0217488
-0.0218573
-0.0219653
-0.0220743
-0.0221827
-0.0222919
-0.0223985
-0.0225064
-0.022615
-0.0227252
-0.0228328
-0.0229382
-0.0230457
-0.023155
-0.0232656
-0.0233711
-0.0234772
-0.0235847
-0.0236957
-0.0238045
-0.0239101
-0.0240171
-0.0241256
-0.0242369
-0.0243444
-0.024451
-0.024559
-0.024669
-0.0247803
-0.0248858
-0.0249951
-0.0251046
-0.0252154
-0.0253247
-0.0254319
-0.025545
-0.0256531
-0.0257654
-0.0258737
-0.0259857
-0.0260964
-0.0262059
-0.0263192
-0.0264261
-0.0265401
-0.0266483
-0.0267542
-0.0268672
-0.0269595
-0.0270552
0.00587999
0.00120916
-0.00622487
-0.011466
-0.0126314
-0.0114372
-0.0099725
-0.00897068
-0.00841821
-0.00815767
-0.00807164
-0.00809003
-0.00817172
-0.00829178
-0.00843128
-0.00857425
-0.00871113
-0.00883928
-0.00895837
-0.00906832
-0.00917074
-0.00926924
-0.00936742
-0.00946736
-0.00956958
-0.00967374
-0.00977978
-0.00988887
-0.0100024
-0.0101203
-0.0102405
-0.0103613
-0.0104819
-0.010603
-0.0107246
-0.0108457
-0.0109649
-0.0110815
-0.0111953
-0.0113065
-0.0114155
-0.0115221
-0.0116261
-0.0117275
-0.0118265
-0.0119233
-0.0120182
-0.0121114
-0.0122031
-0.0122935
-0.0123829
-0.0124711
-0.0125585
-0.0126451
-0.0127315
-0.0128179
-0.0129046
-0.0129913
-0.0130779
-0.0131642
-0.0132506
-0.013337
-0.0134233
-0.0135091
-0.0135943
-0.0136788
-0.0137626
-0.0138458
-0.0139285
-0.0140109
-0.0140929
-0.0141748
-0.0142566
-0.0143385
-0.0144205
-0.0145026
-0.0145846
-0.0146664
-0.0147482
-0.0148302
-0.0149124
-0.0149947
-0.0150775
-0.0151612
-0.0152459
-0.0153315
-0.0154175
-0.015504
-0.0155908
-0.0156779
-0.0157654
-0.0158532
-0.0159413
-0.0160301
-0.0161197
-0.0162102
-0.0163013
-0.0163928
-0.0164845
-0.0165764
-0.0166687
-0.0167614
-0.0168545
-0.0169481
-0.0170422
-0.0171369
-0.0172319
-0.0173274
-0.0174229
-0.0175187
-0.0176145
-0.017711
-0.0178077
-0.017905
-0.0180025
-0.0181005
-0.0181988
-0.0182975
-0.0183963
-0.0184953
-0.0185949
-0.0186947
-0.0187953
-0.0188961
-0.0189976
-0.0190989
-0.0192007
-0.0193025
-0.0194052
-0.0195082
-0.0196119
-0.0197158
-0.0198199
-0.0199244
-0.0200292
-0.0201348
-0.0202407
-0.020347
-0.0204533
-0.0205603
-0.0206676
-0.0207751
-0.0208827
-0.0209904
-0.0210988
-0.0212068
-0.0213153
-0.0214235
-0.0215323
-0.0216405
-0.0217488
-0.0218572
-0.0219653
-0.0220743
-0.0221827
-0.0222918
-0.0223984
-0.0225064
-0.022615
-0.0227251
-0.0228328
-0.0229382
-0.0230457
-0.023155
-0.0232656
-0.0233711
-0.0234771
-0.0235847
-0.0236957
-0.0238045
-0.02391
-0.0240171
-0.0241256
-0.0242369
-0.0243444
-0.0244509
-0.024559
-0.024669
-0.0247803
-0.0248857
-0.0249951
-0.0251046
-0.0252154
-0.0253247
-0.0254319
-0.025545
-0.0256531
-0.0257653
-0.0258737
-0.0259857
-0.0260964
-0.0262059
-0.0263192
-0.0264261
-0.0265401
-0.0266483
-0.0267542
-0.0268672
-0.0269595
-0.0270552
0.0050257
0.00102327
-0.00605442
-0.0112104
-0.012483
-0.0113784
-0.00994138
-0.00894704
-0.00839962
-0.00814338
-0.00806059
-0.00808124
-0.00816453
-0.00828572
-0.00842604
-0.00856966
-0.00870705
-0.00883563
-0.00895509
-0.00906534
-0.00916802
-0.00926674
-0.00936511
-0.00946521
-0.00956758
-0.00967187
-0.00977802
-0.00988721
-0.0100009
-0.0101188
-0.0102391
-0.0103599
-0.0104807
-0.0106018
-0.0107234
-0.0108446
-0.0109639
-0.0110806
-0.0111943
-0.0113056
-0.0114146
-0.0115213
-0.0116254
-0.0117268
-0.0118258
-0.0119226
-0.0120176
-0.0121108
-0.0122025
-0.012293
-0.0123823
-0.0124706
-0.012558
-0.0126446
-0.012731
-0.0128175
-0.0129042
-0.0129909
-0.0130775
-0.0131638
-0.0132502
-0.0133367
-0.013423
-0.0135088
-0.013594
-0.0136785
-0.0137623
-0.0138455
-0.0139282
-0.0140106
-0.0140926
-0.0141745
-0.0142563
-0.0143382
-0.0144203
-0.0145023
-0.0145843
-0.0146661
-0.0147479
-0.01483
-0.0149121
-0.0149945
-0.0150772
-0.015161
-0.0152457
-0.0153313
-0.0154173
-0.0155038
-0.0155906
-0.0156777
-0.0157652
-0.015853
-0.0159412
-0.0160299
-0.0161196
-0.01621
-0.0163012
-0.0163927
-0.0164844
-0.0165763
-0.0166686
-0.0167613
-0.0168544
-0.016948
-0.0170421
-0.0171368
-0.0172318
-0.0173273
-0.0174228
-0.0175186
-0.0176144
-0.0177109
-0.0178076
-0.0179049
-0.0180024
-0.0181004
-0.0181987
-0.0182974
-0.0183962
-0.0184952
-0.0185948
-0.0186946
-0.0187952
-0.018896
-0.0189975
-0.0190989
-0.0192007
-0.0193025
-0.0194051
-0.0195081
-0.0196118
-0.0197157
-0.0198199
-0.0199243
-0.0200291
-0.0201347
-0.0202406
-0.0203469
-0.0204532
-0.0205602
-0.0206676
-0.020775
-0.0208826
-0.0209904
-0.0210988
-0.0212067
-0.0213152
-0.0214235
-0.0215323
-0.0216405
-0.0217487
-0.0218572
-0.0219653
-0.0220742
-0.0221826
-0.0222918
-0.0223984
-0.0225063
-0.022615
-0.0227251
-0.0228328
-0.0229382
-0.0230457
-0.0231549
-0.0232655
-0.0233711
-0.0234771
-0.0235846
-0.0236957
-0.0238045
-0.02391
-0.0240171
-0.0241255
-0.0242369
-0.0243444
-0.0244509
-0.024559
-0.024669
-0.0247802
-0.0248857
-0.0249951
-0.0251046
-0.0252154
-0.0253247
-0.0254319
-0.0255449
-0.0256531
-0.0257653
-0.0258737
-0.0259857
-0.0260964
-0.0262059
-0.0263192
-0.0264261
-0.0265401
-0.0266483
-0.0267542
-0.0268672
-0.0269595
-0.0270552
0.00422447
0.000858511
-0.00581637
-0.0108732
-0.0122771
-0.0112948
-0.0098974
-0.00891189
-0.00837097
-0.00812152
-0.00804422
-0.00806877
-0.00815468
-0.00827762
-0.00841916
-0.00856367
-0.00870178
-0.00883096
-0.00895092
-0.00906162
-0.00916468
-0.00926375
-0.0093624
-0.00946273
-0.0095653
-0.00966977
-0.00977607
-0.0098854
-0.00999916
-0.0101172
-0.0102376
-0.0103585
-0.0104793
-0.0106006
-0.0107222
-0.0108434
-0.0109628
-0.0110795
-0.0111933
-0.0113047
-0.0114137
-0.0115204
-0.0116245
-0.011726
-0.0118251
-0.0119219
-0.0120169
-0.0121101
-0.0122019
-0.0122924
-0.0123817
-0.0124701
-0.0125574
-0.0126441
-0.0127305
-0.012817
-0.0129038
-0.0129905
-0.013077
-0.0131634
-0.0132499
-0.0133363
-0.0134226
-0.0135084
-0.0135937
-0.0136782
-0.013762
-0.0138452
-0.0139279
-0.0140103
-0.0140923
-0.0141742
-0.014256
-0.014338
-0.01442
-0.0145021
-0.0145841
-0.0146659
-0.0147477
-0.0148297
-0.0149119
-0.0149943
-0.015077
-0.0151608
-0.0152455
-0.0153311
-0.0154171
-0.0155036
-0.0155904
-0.0156776
-0.015765
-0.0158528
-0.015941
-0.0160298
-0.0161194
-0.0162099
-0.016301
-0.0163925
-0.0164842
-0.0165761
-0.0166684
-0.0167611
-0.0168543
-0.0169479
-0.017042
-0.0171367
-0.0172317
-0.0173272
-0.0174227
-0.0175185
-0.0176143
-0.0177107
-0.0178075
-0.0179048
-0.0180023
-0.0181003
-0.0181986
-0.0182973
-0.0183961
-0.0184952
-0.0185947
-0.0186946
-0.0187951
-0.018896
-0.0189974
-0.0190988
-0.0192006
-0.0193024
-0.0194051
-0.019508
-0.0196118
-0.0197157
-0.0198198
-0.0199242
-0.020029
-0.0201346
-0.0202405
-0.0203469
-0.0204532
-0.0205602
-0.0206675
-0.020775
-0.0208826
-0.0209903
-0.0210987
-0.0212067
-0.0213152
-0.0214235
-0.0215322
-0.0216404
-0.0217487
-0.0218572
-0.0219652
-0.0220742
-0.0221826
-0.0222918
-0.0223984
-0.0225063
-0.0226149
-0.0227251
-0.0228327
-0.0229381
-0.0230456
-0.0231549
-0.0232655
-0.0233711
-0.0234771
-0.0235846
-0.0236956
-0.0238045
-0.02391
-0.0240171
-0.0241255
-0.0242369
-0.0243444
-0.0244509
-0.024559
-0.0246689
-0.0247802
-0.0248857
-0.0249951
-0.0251046
-0.0252154
-0.0253247
-0.0254319
-0.0255449
-0.0256531
-0.0257653
-0.0258736
-0.0259857
-0.0260964
-0.0262059
-0.0263192
-0.0264261
-0.0265401
-0.0266483
-0.0267542
-0.0268672
-0.0269595
-0.0270552
0.00345858
0.000679142
-0.00556117
-0.0105074
-0.0120465
-0.0112
-0.00984707
-0.0088684
-0.00833302
-0.00809154
-0.00802148
-0.00805137
-0.00814096
-0.00826639
-0.00840963
-0.00855539
-0.00869449
-0.00882449
-0.00894516
-0.00905649
-0.00916014
-0.00925973
-0.00935881
-0.00945949
-0.00956234
-0.00966708
-0.00977362
-0.00988316
-0.00999709
-0.0101153
-0.0102358
-0.0103567
-0.0104777
-0.010599
-0.0107208
-0.010842
-0.0109615
-0.0110782
-0.0111921
-0.0113036
-0.0114126
-0.0115194
-0.0116236
-0.0117251
-0.0118242
-0.0119211
-0.0120161
-0.0121094
-0.0122012
-0.0122917
-0.0123811
-0.0124694
-0.0125568
-0.0126435
-0.01273
-0.0128165
-0.0129032
-0.01299
-0.0130766
-0.013163
-0.0132494
-0.0133359
-0.0134222
-0.0135081
-0.0135933
-0.0136778
-0.0137616
-0.0138448
-0.0139276
-0.0140099
-0.014092
-0.0141739
-0.0142557
-0.0143377
-0.0144197
-0.0145018
-0.0145838
-0.0146656
-0.0147474
-0.0148295
-0.0149117
-0.014994
-0.0150768
-0.0151605
-0.0152453
-0.0153309
-0.0154169
-0.0155034
-0.0155902
-0.0156774
-0.0157648
-0.0158526
-0.0159408
-0.0160296
-0.0161192
-0.0162097
-0.0163009
-0.0163924
-0.0164841
-0.016576
-0.0166683
-0.016761
-0.0168541
-0.0169477
-0.0170418
-0.0171365
-0.0172316
-0.017327
-0.0174225
-0.0175183
-0.0176142
-0.0177106
-0.0178073
-0.0179046
-0.0180021
-0.0181002
-0.0181985
-0.0182972
-0.018396
-0.0184951
-0.0185946
-0.0186945
-0.018795
-0.0188959
-0.0189973
-0.0190987
-0.0192005
-0.0193023
-0.019405
-0.019508
-0.0196117
-0.0197156
-0.0198197
-0.0199242
-0.020029
-0.0201346
-0.0202405