/*--------------------------------*- C++ -*----------------------------------*\
| =========                 |                                                 |
| \\      /  F ield         | OpenFOAM: The Open Source CFD Toolbox           |
|  \\    /   O peration     | Version:  v2012                                 |
|   \\  /    A nd           | Website:  www.openfoam.com                      |
|    \\/     M anipulation  |                                                 |
\*---------------------------------------------------------------------------*/
FoamFile
{
    version     2.0;
    format      ascii;
    class       surfaceScalarField;
    location    "2";
    object      phi;
}
// * * * * * * * * * * * * * * * * * * * * * * * * * * * * * * * * * * * * * //

dimensions      [0 3 -1 0 0 0 0];
oriented        oriented;


internalField   nonuniform List<scalar> 
34900
(
1.17982e-06
6.90611e-07
1.14494e-06
-5.5303e-07
1.1584e-06
1.01527e-07
1.14497e-06
9.09563e-08
1.14936e-06
-7.93785e-08
1.14202e-06
9.8098e-10
1.14952e-06
4.78436e-08
1.14202e-06
-2.06046e-08
1.14854e-06
3.78318e-08
1.14153e-06
7.14393e-09
1.14832e-06
4.60889e-08
1.14018e-06
-5.61855e-09
1.14756e-06
2.94563e-08
1.13795e-06
-1.87567e-08
1.14595e-06
2.92277e-08
1.1341e-06
-2.43989e-08
1.14266e-06
3.96881e-08
1.12811e-06
-3.12612e-08
1.13289e-06
5.96505e-08
-4.37453e-08
1.09139e-06
1.23081e-06
6.84063e-07
1.19685e-06
-5.19069e-07
1.20809e-06
9.02862e-08
1.19929e-06
9.97531e-08
1.20191e-06
-8.1994e-08
1.19729e-06
5.59911e-09
1.20236e-06
4.27687e-08
1.19841e-06
-1.66523e-08
1.20108e-06
3.51633e-08
1.19938e-06
8.84807e-09
1.2005e-06
4.49613e-08
1.19969e-06
-4.80763e-09
1.19896e-06
3.01857e-08
1.19999e-06
-1.97848e-08
1.19561e-06
3.36079e-08
1.19957e-06
-2.83564e-08
1.18916e-06
5.00985e-08
1.19743e-06
-3.95316e-08
1.17507e-06
8.20053e-08
-4.35325e-08
1.17486e-06
1.28444e-06
6.8241e-07
1.25335e-06
-4.87983e-07
1.25832e-06
8.53179e-08
1.25715e-06
1.00922e-07
1.25563e-06
-8.04725e-08
1.25637e-06
4.86065e-09
1.2564e-06
4.27325e-08
1.25873e-06
-1.89781e-08
1.25561e-06
3.82838e-08
1.26061e-06
3.85125e-09
1.25569e-06
4.9876e-08
1.26168e-06
-1.07928e-08
1.25516e-06
3.66983e-08
1.26194e-06
-2.65583e-08
1.25363e-06
4.1912e-08
1.26012e-06
-3.48429e-08
1.25111e-06
5.91069e-08
1.25463e-06
-4.30544e-08
1.24482e-06
9.18202e-08
-2.77395e-08
1.22903e-06
1.34189e-06
6.84625e-07
1.31671e-06
-4.62801e-07
1.31265e-06
8.93743e-08
1.31947e-06
9.41007e-08
1.3135e-06
-7.44967e-08
1.31822e-06
1.31871e-10
1.31446e-06
4.64973e-08
1.32101e-06
-2.5525e-08
1.31497e-06
4.43182e-08
1.32262e-06
-3.79224e-09
1.3168e-06
5.56872e-08
1.32359e-06
-1.75764e-08
1.31833e-06
4.19527e-08
1.32351e-06
-3.17303e-08
1.31895e-06
4.6471e-08
1.32154e-06
-3.74368e-08
1.3184e-06
6.22518e-08
1.31638e-06
-4.10364e-08
1.31312e-06
9.50797e-08
-8.5578e-09
1.29394e-06
1.40406e-06
6.88921e-07
1.38617e-06
-4.4491e-07
1.37384e-06
1.01698e-07
1.38613e-06
8.18098e-08
1.37775e-06
-6.61098e-08
1.38337e-06
-5.49037e-09
1.37883e-06
5.10368e-08
1.38594e-06
-3.26388e-08
1.38077e-06
4.94937e-08
1.38728e-06
-1.03046e-08
1.38408e-06
5.88833e-08
1.38882e-06
-2.23123e-08
1.3868e-06
4.39781e-08
1.38951e-06
-3.4441e-08
1.38802e-06
4.79592e-08
1.38843e-06
-3.78486e-08
1.38758e-06
6.31028e-08
1.38363e-06
-3.70852e-08
1.38213e-06
9.65783e-08
1.05996e-08
1.36297e-06
1.47136e-06
6.93241e-07
1.4601e-06
-4.3365e-07
1.44314e-06
1.18656e-07
1.45708e-06
6.78646e-08
1.44903e-06
-5.80565e-08
1.45318e-06
-9.64516e-09
1.4501e-06
5.41252e-08
1.45554e-06
-3.80787e-08
1.4527e-06
5.23291e-08
1.45711e-06
-1.47097e-08
1.45648e-06
5.95098e-08
1.45951e-06
-2.53455e-08
1.45939e-06
4.40989e-08
1.46092e-06
-3.5967e-08
1.46062e-06
4.82529e-08
1.46018e-06
-3.74018e-08
1.46019e-06
6.30901e-08
1.45493e-06
-3.18243e-08
1.45474e-06
9.67699e-08
2.97701e-08
1.43557e-06
1.54361e-06
6.95844e-07
1.53706e-06
-4.27092e-07
1.51989e-06
1.35825e-07
1.53242e-06
5.53357e-08
1.52627e-06
-5.19106e-08
1.52844e-06
-1.18182e-08
1.52714e-06
5.5424e-08
1.53061e-06
-4.15432e-08
1.52954e-06
5.33984e-08
1.53247e-06
-1.7638e-08
1.53311e-06
5.88676e-08
1.53528e-06
-2.75196e-08
1.53584e-06
4.35381e-08
1.5368e-06
-3.69205e-08
1.53702e-06
4.80324e-08
1.53582e-06
-3.62053e-08
1.53657e-06
6.23444e-08
1.52988e-06
-2.51336e-08
1.53085e-06
9.58008e-08
4.86499e-08
1.51197e-06
1.62018e-06
6.95791e-07
1.61624e-06
-4.23147e-07
1.60205e-06
1.50015e-07
1.61182e-06
4.55602e-08
1.6076e-06
-4.76866e-08
1.60854e-06
-1.27621e-08
1.60832e-06
5.56495e-08
1.61039e-06
-4.36176e-08
1.61009e-06
5.36952e-08
1.61224e-06
-1.97854e-08
1.61326e-06
5.7845e-08
1.61493e-06
-2.91807e-08
1.6157e-06
4.27681e-08
1.61611e-06
-3.73363e-08
1.61675e-06
4.73926e-08
1.61465e-06
-3.40997e-08
1.61614e-06
6.08534e-08
1.60803e-06
-1.70297e-08
1.60983e-06
9.40035e-08
6.67076e-08
1.59177e-06
1.70035e-06
6.93019e-07
1.69745e-06
-4.20253e-07
1.68745e-06
1.60018e-07
1.69457e-06
3.8437e-08
1.69154e-06
-4.46503e-08
1.69217e-06
-1.33941e-08
1.69233e-06
5.54857e-08
1.69361e-06
-4.48937e-08
1.69351e-06
5.37922e-08
1.6952e-06
-2.14786e-08
1.69629e-06
5.6756e-08
1.69748e-06
-3.0363e-08
1.69838e-06
4.18649e-08
1.69815e-06
-3.71101e-08
1.69927e-06
4.62753e-08
1.69614e-06
-3.09668e-08
1.69835e-06
5.86369e-08
1.68901e-06
-7.68697e-09
1.69124e-06
9.17744e-08
8.34089e-08
1.67454e-06
1.78372e-06
6.88018e-07
1.78096e-06
-4.1749e-07
1.77483e-06
1.66146e-07
1.78002e-06
3.32525e-08
1.77751e-06
-4.21451e-08
1.77832e-06
-1.42044e-08
1.77859e-06
5.52191e-08
1.77943e-06
-4.57332e-08
1.77937e-06
5.38456e-08
1.78071e-06
-2.28165e-08
1.78186e-06
5.56117e-08
1.78252e-06
-3.10285e-08
1.78364e-06
4.07496e-08
1.78268e-06
-3.61479e-08
1.78436e-06
4.45869e-08
1.78017e-06
-2.67737e-08
1.78303e-06
5.57809e-08
1.77276e-06
2.57508e-09
1.77498e-06
8.95592e-08
9.82751e-08
1.76011e-06
1.87036e-06
6.81401e-07
1.86726e-06
-4.14387e-07
1.86406e-06
1.69351e-07
1.868e-06
2.93115e-08
1.86572e-06
-3.98704e-08
1.86678e-06
-1.52643e-08
1.86714e-06
5.4864e-08
1.86772e-06
-4.63189e-08
1.86776e-06
5.38072e-08
1.86876e-06
-2.38137e-08
1.87007e-06
5.43053e-08
1.87017e-06
-3.11374e-08
1.87164e-06
3.92873e-08
1.86988e-06
-3.43911e-08
1.87221e-06
4.2254e-08
1.86703e-06
-2.15876e-08
1.87034e-06
5.24661e-08
1.85959e-06
1.33283e-08
1.86133e-06
8.7822e-08
1.1094e-07
1.84866e-06
1.9606e-06
6.73644e-07
1.95692e-06
-4.10708e-07
1.9557e-06
1.70566e-07
1.95884e-06
2.61727e-08
1.95676e-06
-3.77913e-08
1.95794e-06
-1.64423e-08
1.95847e-06
5.43387e-08
1.95886e-06
-4.67177e-08
1.95911e-06
5.3562e-08
1.95974e-06
-2.44478e-08
1.96136e-06
5.26936e-08
1.96087e-06
-3.06495e-08
1.96281e-06
3.73405e-08
1.96024e-06
-3.18196e-08
1.96323e-06
3.92658e-08
1.95722e-06
-1.55791e-08
1.96071e-06
4.89752e-08
1.94995e-06
2.40936e-08
1.95081e-06
8.69628e-08
1.21226e-07
1.94052e-06
2.05481e-06
6.65019e-07
2.05043e-06
-4.06323e-07
2.05057e-06
1.70425e-07
2.05311e-06
2.36349e-08
2.05131e-06
-3.59891e-08
2.05242e-06
-1.75606e-08
2.05322e-06
5.35463e-08
2.05341e-06
-4.6914e-08
2.05399e-06
5.29827e-08
2.05421e-06
-2.46657e-08
2.05627e-06
5.06327e-08
2.05514e-06
-2.95217e-08
2.05768e-06
3.48028e-08
2.05432e-06
-2.84595e-08
2.05789e-06
3.56961e-08
2.05132e-06
-9.00747e-09
2.05463e-06
4.5666e-08
2.04431e-06
3.44071e-08
2.04402e-06
8.72547e-08
1.29172e-07
2.03608e-06
2.15336e-06
6.55656e-07
2.1482e-06
-4.01155e-07
2.14937e-06
1.6925e-07
2.15135e-06
2.16514e-08
2.14994e-06
-3.45773e-08
2.15084e-06
-1.84537e-08
2.15199e-06
5.23897e-08
2.15191e-06
-4.68351e-08
2.15295e-06
5.19448e-08
2.15268e-06
-2.43924e-08
2.15531e-06
4.79965e-08
2.15351e-06
-2.7719e-08
2.15669e-06
3.16234e-08
2.15263e-06
-2.44002e-08
2.15661e-06
3.17147e-08
2.1498e-06
-2.19797e-09
2.15255e-06
4.2921e-08
2.14308e-06
4.38804e-08
2.14152e-06
8.8812e-08
1.35013e-07
2.13568e-06
2.25654e-06
6.45602e-07
2.25054e-06
-3.95148e-07
2.25264e-06
1.6715e-07
2.25403e-06
2.02569e-08
2.25313e-06
-3.3676e-08
2.25365e-06
-1.8975e-08
2.25527e-06
5.077e-08
2.25481e-06
-4.63773e-08
2.25642e-06
5.03329e-08
2.25558e-06
-2.35469e-08
2.25888e-06
4.46907e-08
2.2564e-06
-2.52369e-08
2.2602e-06
2.78258e-08
2.25561e-06
-1.98147e-08
2.25975e-06
2.75811e-08
2.25305e-06
4.49743e-09
2.25489e-06
4.1085e-08
2.24653e-06
5.22415e-08
2.24375e-06
9.15892e-08
1.39131e-07
2.23963e-06
2.36461e-06
6.34867e-07
2.35772e-06
-3.88255e-07
2.36075e-06
1.64123e-07
2.36148e-06
1.95251e-08
2.36121e-06
-3.34078e-08
2.36122e-06
-1.89911e-08
2.36341e-06
4.85853e-08
2.36246e-06
-4.5428e-08
2.36475e-06
4.80467e-08
2.36326e-06
-2.20618e-08
2.36728e-06
4.06676e-08
2.36418e-06
-2.21274e-08
2.36848e-06
2.35239e-08
2.36362e-06
-1.49613e-08
2.36761e-06
2.35985e-08
2.36133e-06
1.07734e-08
2.36203e-06
4.03877e-08
2.35488e-06
5.93851e-08
2.35109e-06
9.53805e-08
1.41989e-07
2.34823e-06
2.47782e-06
6.23442e-07
2.46999e-06
-3.80425e-07
2.474e-06
1.60112e-07
2.47398e-06
1.95461e-08
2.47447e-06
-3.38963e-08
2.47386e-06
-1.83785e-08
2.47671e-06
4.5735e-08
2.47516e-06
-4.3884e-08
2.4782e-06
4.501e-08
2.47604e-06
-1.99051e-08
2.48077e-06
3.59434e-08
2.47716e-06
-1.85201e-08
2.48176e-06
1.89224e-08
2.47696e-06
-1.01647e-08
2.48047e-06
2.00912e-08
2.47487e-06
1.63789e-08
2.47432e-06
4.09301e-08
2.46833e-06
6.53795e-08
2.46387e-06
9.9841e-08
1.44075e-07
2.46178e-06
2.59642e-06
6.11312e-07
2.5876e-06
-3.71601e-07
2.59267e-06
1.55041e-07
2.5918e-06
2.04175e-08
2.59317e-06
-3.52628e-08
2.59181e-06
-1.70246e-08
2.59542e-06
4.21291e-08
2.5932e-06
-4.16672e-08
2.59703e-06
4.11846e-08
2.59422e-06
-1.71012e-08
2.59955e-06
3.06156e-08
2.59566e-06
-1.46318e-08
2.60029e-06
1.42975e-08
2.59589e-06
-5.76516e-09
2.59864e-06
1.73389e-08
2.59386e-06
2.11578e-08
2.59213e-06
4.26599e-08
2.58706e-06
7.04477e-08
2.58235e-06
1.04556e-07
1.45832e-07
2.58059e-06
2.72069e-06
5.98454e-07
2.71081e-06
-3.61722e-07
2.71703e-06
1.48819e-07
2.71521e-06
2.22383e-08
2.71757e-06
-3.76222e-08
2.71538e-06
-1.48342e-08
2.71981e-06
3.76999e-08
2.71688e-06
-3.87406e-08
2.72148e-06
3.65882e-08
2.71813e-06
-1.37528e-08
2.72387e-06
2.48754e-08
2.72e-06
-1.07628e-08
2.72433e-06
9.96583e-09
2.72063e-06
-2.06548e-09
2.72245e-06
1.55196e-08
2.71852e-06
2.50852e-08
2.71579e-06
4.53912e-08
2.71135e-06
7.48911e-08
2.70676e-06
1.09139e-07
1.4759e-07
2.70501e-06
2.85088e-06
5.84844e-07
2.83987e-06
-3.50718e-07
2.84734e-06
1.4135e-07
2.84448e-06
2.51048e-08
2.84793e-06
-4.10753e-08
2.84483e-06
-1.17381e-08
2.85012e-06
3.24157e-08
2.8465e-06
-3.51245e-08
2.85178e-06
3.13122e-08
2.84808e-06
-1.0055e-08
2.85395e-06
1.90087e-08
2.85046e-06
-7.27435e-09
2.85419e-06
6.23752e-09
2.85139e-06
7.29565e-10
2.85225e-06
1.46649e-08
2.84907e-06
2.82618e-08
2.84559e-06
4.88691e-08
2.84149e-06
7.89951e-08
2.83731e-06
1.1332e-07
1.49516e-07
2.83538e-06
2.98728e-06
5.70458e-07
2.97508e-06
-3.38518e-07
2.9839e-06
1.32532e-07
2.9799e-06
2.91046e-08
2.98453e-06
-4.57022e-08
2.98049e-06
-7.70527e-09
2.98661e-06
2.62979e-08
2.9824e-06
-3.09156e-08
2.98818e-06
2.55398e-08
2.98442e-06
-6.30262e-09
2.99006e-06
1.33749e-08
2.98732e-06
-4.54182e-09
2.9902e-06
3.35895e-09
2.98838e-06
2.55647e-09
2.98839e-06
1.465e-08
2.98579e-06
3.08675e-08
2.98183e-06
5.28234e-08
2.97784e-06
8.29861e-08
2.97416e-06
1.17003e-07
1.51617e-07
2.97206e-06
3.13019e-06
5.55271e-07
3.11672e-06
-3.25047e-07
3.12699e-06
1.22262e-07
3.12179e-06
3.43077e-08
3.12764e-06
-5.155e-08
3.12269e-06
-2.7583e-09
3.12954e-06
1.94439e-08
3.12494e-06
-2.63106e-08
3.13092e-06
1.95606e-08
3.12749e-06
-2.87596e-09
3.13251e-06
8.35514e-09
3.13084e-06
-2.87295e-09
3.13276e-06
1.44034e-09
3.13181e-06
3.50846e-09
3.13123e-06
1.52328e-08
3.12902e-06
3.30756e-08
3.12485e-06
5.69866e-08
3.1208e-06
8.70377e-08
3.11747e-06
1.20335e-07
1.53729e-07
3.11536e-06
3.27992e-06
5.39265e-07
3.2651e-06
-3.1023e-07
3.27692e-06
1.10443e-07
3.27047e-06
4.07563e-08
3.27754e-06
-5.86191e-08
3.27177e-06
3.00774e-09
3.27917e-06
1.20457e-08
3.27448e-06
-2.16177e-08
3.28027e-06
1.37654e-08
3.2776e-06
-2.06316e-10
3.28167e-06
4.28735e-09
3.2812e-06
-2.40434e-09
3.28229e-06
3.57132e-10
3.28194e-06
3.85023e-09
3.2811e-06
1.60758e-08
3.27921e-06
3.49663e-08
3.27514e-06
6.10588e-08
3.27094e-06
9.12396e-08
3.26734e-06
1.23932e-07
1.55438e-07
3.26563e-06
3.43677e-06
5.22424e-07
3.42054e-06
-2.93993e-07
3.43399e-06
9.69925e-08
3.42629e-06
4.84489e-08
3.43452e-06
-6.68444e-08
3.42812e-06
9.40483e-09
3.43576e-06
4.40393e-09
3.43139e-06
-1.72449e-08
3.43657e-06
8.58832e-09
3.43503e-06
1.332e-09
3.43798e-06
1.34e-09
3.43857e-06
-2.99579e-09
3.43923e-06
-3.08403e-10
3.43908e-06
4.00914e-09
3.43843e-06
1.6725e-08
3.43699e-06
3.63978e-08
3.43357e-06
6.44794e-08
3.42939e-06
9.54274e-08
3.42417e-06
1.29149e-07
1.5628e-07
3.42333e-06
3.60109e-06
5.04741e-07
3.58338e-06
-2.76274e-07
3.59851e-06
8.18554e-08
3.58964e-06
5.73221e-08
3.59887e-06
-7.60754e-08
3.59214e-06
1.61347e-08
3.59962e-06
-3.07211e-09
3.59604e-06
-1.36695e-08
3.60018e-06
4.44684e-09
3.60001e-06
1.51007e-09
3.60192e-06
-5.75977e-10
3.60314e-06
-4.21839e-09
3.60402e-06
-1.18277e-09
3.60361e-06
4.42053e-09
3.60371e-06
1.66208e-08
3.6031e-06
3.70105e-08
3.60142e-06
6.61555e-08
3.59791e-06
9.8943e-08
3.59185e-06
1.35204e-07
1.59344e-07
3.58879e-06
3.77323e-06
4.86217e-07
3.75399e-06
-2.57036e-07
3.77082e-06
6.50286e-08
3.76092e-06
6.72244e-08
3.77089e-06
-8.60541e-08
3.76425e-06
2.27812e-08
3.77105e-06
-9.87747e-09
3.7688e-06
-1.14143e-08
3.77153e-06
1.71641e-09
3.77278e-06
2.61867e-10
3.77392e-06
-1.72201e-09
3.77534e-06
-5.6338e-09
3.77682e-06
-2.66184e-09
3.77617e-06
5.07163e-09
3.77722e-06
1.55633e-08
3.77547e-06
3.87623e-08
3.7723e-06
6.93255e-08
3.76962e-06
1.01622e-07
3.77245e-06
1.32373e-07
1.70903e-07
3.76089e-06
3.95354e-06
4.66867e-07
3.93278e-06
-2.36279e-07
3.95122e-06
4.65862e-08
3.94056e-06
7.78901e-08
3.95089e-06
-9.63917e-08
3.94489e-06
2.87861e-08
3.95042e-06
-1.54081e-08
3.95001e-06
-1.10016e-08
3.95107e-06
6.51835e-10
3.95362e-06
-2.28335e-09
3.95433e-06
-2.42991e-09
3.95566e-06
-6.97008e-09
3.95762e-06
-4.61759e-09
3.95685e-06
5.83927e-09
3.95427e-06
1.81393e-08
3.94833e-06
4.47036e-08
3.9441e-06
7.35564e-08
3.94053e-06
1.05196e-07
3.9372e-06
1.35696e-07
1.70163e-07
3.93794e-06
4.1424e-06
4.46722e-07
4.12017e-06
-2.14056e-07
4.14005e-06
2.67054e-08
4.12902e-06
8.89243e-08
4.13921e-06
-1.06581e-07
4.13449e-06
3.35075e-08
4.13817e-06
-1.90902e-08
4.13993e-06
-1.27647e-08
4.13935e-06
1.2347e-09
4.14277e-06
-5.70591e-09
4.14348e-06
-3.14184e-09
4.14425e-06
-7.73189e-09
4.1453e-06
-5.66975e-09
4.14081e-06
1.03304e-08
4.13439e-06
2.45576e-08
4.12994e-06
4.91553e-08
4.12598e-06
7.75169e-08
4.12246e-06
1.08716e-07
4.11932e-06
1.38837e-07
1.67274e-07
4.12221e-06
4.34019e-06
4.25831e-07
4.31663e-06
-1.90497e-07
4.33764e-06
5.70071e-09
4.32678e-06
9.9786e-08
4.33621e-06
-1.16018e-07
4.33344e-06
3.62767e-08
4.33482e-06
-2.0466e-08
4.3388e-06
-1.67453e-08
4.3369e-06
3.13876e-09
4.34046e-06
-9.26912e-09
4.34129e-06
-3.9675e-09
4.33947e-06
-5.91127e-09
4.33669e-06
-2.89921e-09
4.3317e-06
1.53246e-08
4.32564e-06
3.06199e-08
4.32159e-06
5.32048e-08
4.31816e-06
8.095e-08
4.31534e-06
1.11533e-07
4.31332e-06
1.40856e-07
1.64403e-07
4.31619e-06
4.54734e-06
4.04268e-07
4.52266e-06
-1.65821e-07
4.54432e-06
-1.59544e-08
4.5343e-06
1.09803e-07
4.54235e-06
-1.24067e-07
4.54211e-06
3.65104e-08
4.54095e-06
-1.93e-08
4.54683e-06
-2.26277e-08
4.54413e-06
5.83781e-09
4.54645e-06
-1.15885e-08
4.54641e-06
-3.92491e-09
4.54108e-06
-5.80147e-10
4.53724e-06
9.33762e-10
4.53305e-06
1.95198e-08
4.52738e-06
3.62921e-08
4.52323e-06
5.73522e-08
4.52031e-06
8.38735e-08
4.51828e-06
1.13559e-07
4.51773e-06
1.414e-07
1.62322e-07
4.51982e-06
4.76426e-06
3.82128e-07
4.73877e-06
-1.4034e-07
4.76046e-06
-3.76424e-08
4.75203e-06
1.18232e-07
4.75811e-06
-1.30143e-07
4.76076e-06
3.38612e-08
4.75717e-06
-1.57101e-08
4.76416e-06
-2.96141e-08
4.76101e-06
8.98416e-09
4.76023e-06
-1.08103e-08
4.759e-06
-2.69553e-09
4.75259e-06
5.83503e-09
4.74811e-06
5.41493e-09
4.74476e-06
2.28615e-08
4.73955e-06
4.15091e-08
4.73515e-06
6.17518e-08
4.7326e-06
8.64192e-08
4.73136e-06
1.14795e-07
4.73198e-06
1.40781e-07
1.60756e-07
4.73355e-06
4.9914e-06
3.59525e-07
4.96551e-06
-1.14452e-07
4.98649e-06
-5.86233e-08
4.98039e-06
1.24338e-07
4.98406e-06
-1.33816e-07
4.98958e-06
2.8338e-08
4.984e-06
-1.01244e-08
4.99076e-06
-3.63791e-08
4.98688e-06
1.28706e-08
4.98247e-06
-6.40123e-09
4.98136e-06
-1.58771e-09
4.97494e-06
1.22589e-08
4.96974e-06
1.06077e-08
4.96693e-06
2.56761e-08
4.96236e-06
4.60774e-08
4.95778e-06
6.633e-08
4.95545e-06
8.87492e-08
4.95501e-06
1.15236e-07
4.95606e-06
1.39733e-07
1.58949e-07
4.95787e-06
5.22925e-06
3.36593e-07
5.20342e-06
-8.86199e-08
5.22289e-06
-7.80962e-08
5.21971e-06
1.27522e-07
5.22079e-06
-1.34902e-07
5.22878e-06
2.03524e-08
5.22163e-06
-2.97751e-09
5.22655e-06
-4.1296e-08
5.22202e-06
1.73937e-08
5.21514e-06
4.84314e-10
5.21426e-06
-7.09313e-10
5.2086e-06
1.79191e-08
5.20263e-06
1.65801e-08
5.1999e-06
2.84038e-08
5.19613e-06
4.98516e-08
5.19162e-06
7.08376e-08
5.1894e-06
9.0967e-08
5.18951e-06
1.15124e-07
5.19083e-06
1.38418e-07
1.56673e-07
5.1931e-06
5.4783e-06
3.13478e-07
5.45304e-06
-6.33513e-08
5.47023e-06
-9.52873e-08
5.47025e-06
1.27502e-07
5.46885e-06
-1.33503e-07
5.47845e-06
1.07493e-08
5.46979e-06
5.68028e-09
5.47188e-06
-4.33864e-08
5.46784e-06
2.14359e-08
5.4593e-06
9.02529e-09
5.4583e-06
2.89425e-10
5.45391e-06
2.23142e-08
5.44728e-06
2.32088e-08
5.44421e-06
3.14697e-08
5.44122e-06
5.2841e-08
5.43712e-06
7.49387e-08
5.43497e-06
9.31146e-08
5.43533e-06
1.14771e-07
5.43701e-06
1.36733e-07
1.53947e-07
5.43974e-06
5.73911e-06
2.90329e-07
5.71492e-06
-3.9161e-08
5.72924e-06
-1.09607e-07
5.73223e-06
1.2451e-07
5.72857e-06
-1.29849e-07
5.73861e-06
7.14111e-10
5.72834e-06
1.59526e-08
5.72802e-06
-4.30732e-08
5.72536e-06
2.41056e-08
5.71581e-06
1.8574e-08
5.7141e-06
1.99525e-09
5.71113e-06
2.52881e-08
5.70422e-06
3.01129e-08
5.7005e-06
3.51943e-08
5.69814e-06
5.52036e-08
5.69475e-06
7.83236e-08
5.69269e-06
9.51726e-08
5.69306e-06
1.14403e-07
5.69515e-06
1.34644e-07
1.50783e-07
5.69831e-06
6.01223e-06
2.67293e-07
5.9896e-06
-1.65318e-08
6.00074e-06
-1.20745e-07
6.00596e-06
1.19283e-07
6.00007e-06
-1.23952e-07
6.00969e-06
-8.91032e-09
5.99853e-06
2.71109e-08
5.99608e-06
-4.06195e-08
5.99523e-06
2.49558e-08
5.9853e-06
2.85076e-08
5.98238e-06
4.90809e-09
5.98061e-06
2.7059e-08
5.97396e-06
3.6768e-08
5.96944e-06
3.97078e-08
5.96743e-06
5.72145e-08
5.96498e-06
8.07761e-08
5.96309e-06
9.70615e-08
5.96337e-06
1.1412e-07
5.96579e-06
1.32227e-07
1.47181e-07
5.96939e-06
6.29827e-06
2.44509e-07
6.2776e-06
4.14307e-09
6.28557e-06
-1.28714e-07
6.292e-06
1.12849e-07
6.28354e-06
-1.15492e-07
6.29268e-06
-1.8046e-08
6.28175e-06
3.80412e-08
6.27699e-06
-3.58664e-08
6.27794e-06
2.40098e-08
6.26833e-06
3.81194e-08
6.26386e-06
9.37291e-09
6.26288e-06
2.80411e-08
6.25696e-06
4.26921e-08
6.25174e-06
4.49233e-08
6.24976e-06
5.91923e-08
6.24831e-06
8.22289e-08
6.24673e-06
9.86443e-08
6.24693e-06
1.13913e-07
6.24955e-06
1.29614e-07
1.43172e-07
6.25356e-06
6.59787e-06
2.22113e-07
6.57943e-06
2.25799e-08
6.58447e-06
-1.33755e-07
6.59125e-06
1.06067e-07
6.58005e-06
-1.04295e-07
6.58874e-06
-2.67329e-08
6.5789e-06
4.78873e-08
6.57175e-06
-2.87235e-08
6.57398e-06
2.17807e-08
6.5654e-06
4.67015e-08
6.55927e-06
1.55024e-08
6.55856e-06
2.8752e-08
6.55371e-06
4.75464e-08
6.54806e-06
5.05728e-08
6.54583e-06
6.14166e-08
6.54528e-06
8.27802e-08
6.54418e-06
9.97492e-08
6.5444e-06
1.1369e-07
6.54708e-06
1.26934e-07
1.38838e-07
6.55141e-06
6.91167e-06
2.00237e-07
6.89563e-06
3.86212e-08
6.89811e-06
-1.36236e-07
6.90483e-06
9.93431e-08
6.89095e-06
-9.0417e-08
6.89881e-06
-3.45909e-08
6.89067e-06
5.60262e-08
6.88122e-06
-1.92749e-08
6.88397e-06
1.90356e-08
6.87698e-06
5.36912e-08
6.86936e-06
2.31169e-08
6.86839e-06
2.97263e-08
6.86473e-06
5.12048e-08
6.85903e-06
5.62689e-08
6.85641e-06
6.4039e-08
6.8565e-06
8.26922e-08
6.85604e-06
1.00213e-07
6.85642e-06
1.13302e-07
6.85909e-06
1.24266e-07
1.34304e-07
6.86363e-06
7.24036e-06
1.79011e-07
7.22674e-06
5.22473e-08
7.22706e-06
-1.36555e-07
7.23375e-06
9.26499e-08
7.21733e-06
-7.39936e-08
7.2236e-06
-4.08623e-08
7.21765e-06
6.19775e-08
7.20621e-06
-7.84152e-09
7.20862e-06
1.66246e-08
7.20353e-06
5.87837e-08
7.19488e-06
3.17651e-08
7.19316e-06
3.14482e-08
7.19063e-06
5.37372e-08
7.18529e-06
6.16045e-08
7.1823e-06
6.7033e-08
7.18266e-06
8.2331e-08
7.18293e-06
9.99389e-08
7.18366e-06
1.12577e-07
7.1863e-06
1.21624e-07
1.297e-07
7.19091e-06
7.58468e-06
1.58561e-07
7.57338e-06
6.35428e-08
7.57181e-06
-1.34987e-07
7.57885e-06
8.56119e-08
7.56015e-06
-5.52978e-08
7.56395e-06
-4.4659e-08
7.56034e-06
6.55941e-08
7.5475e-06
4.98943e-09
7.5488e-06
1.53271e-08
7.54559e-06
6.1995e-08
7.53652e-06
4.0835e-08
7.53374e-06
3.42274e-08
7.53208e-06
5.54007e-08
7.52744e-06
6.62437e-08
7.52424e-06
7.02275e-08
7.52454e-06
8.20309e-08
7.52553e-06
9.89487e-08
7.52676e-06
1.11353e-07
7.52943e-06
1.18949e-07
1.25117e-07
7.53402e-06
7.94534e-06
1.3903e-07
7.93613e-06
7.27551e-08
7.93304e-06
-1.31895e-07
7.94077e-06
7.78801e-08
7.92027e-06
-3.47962e-08
7.92076e-06
-4.51499e-08
7.9193e-06
6.70488e-08
7.90585e-06
1.84411e-08
7.90542e-06
1.57591e-08
7.90382e-06
6.35948e-08
7.89494e-06
4.97167e-08
7.89101e-06
3.81609e-08
7.88984e-06
5.65615e-08
7.88611e-06
6.9976e-08
7.88297e-06
7.33657e-08
7.88302e-06
8.19868e-08
7.88458e-06
9.73864e-08
7.88641e-06
1.09524e-07
7.88922e-06
1.16135e-07
1.20592e-07
7.89375e-06
8.32314e-06
1.20574e-07
8.31582e-06
8.00718e-08
8.31123e-06
-1.27302e-07
8.31996e-06
6.91437e-08
8.29839e-06
-1.32215e-08
8.29496e-06
-4.17211e-08
8.29522e-06
6.67883e-08
8.28193e-06
3.17369e-08
8.27942e-06
1.82635e-08
8.279e-06
6.40178e-08
8.2708e-06
5.79174e-08
8.26581e-06
4.31481e-08
8.26477e-06
5.7598e-08
8.26201e-06
7.27406e-08
8.25921e-06
7.61672e-08
8.25895e-06
8.22436e-08
8.26089e-06
9.54509e-08
8.26335e-06
1.07063e-07
8.26642e-06
1.13057e-07
1.16108e-07
8.27091e-06
8.71886e-06
1.03374e-07
8.71352e-06
8.54179e-08
8.70671e-06
-1.20499e-07
8.71682e-06
5.90342e-08
8.69515e-06
8.44958e-09
8.6876e-06
-3.41714e-08
8.68879e-06
6.55954e-08
8.67638e-06
4.41491e-08
8.67179e-06
2.2852e-08
8.67196e-06
6.38508e-08
8.66481e-06
6.50677e-08
8.65901e-06
4.89475e-08
8.65778e-06
5.8827e-08
8.65593e-06
7.45926e-08
8.65367e-06
7.84227e-08
8.6532e-06
8.27148e-08
8.65532e-06
9.33283e-08
8.65836e-06
1.04028e-07
8.66181e-06
1.09611e-07
1.11605e-07
8.66631e-06
9.13337e-06
8.7623e-08
9.12996e-06
8.88323e-08
9.12064e-06
-1.11182e-07
9.13143e-06
4.82414e-08
9.11114e-06
2.87368e-08
9.09966e-06
-2.26831e-08
9.10095e-06
6.42995e-08
9.08986e-06
5.52401e-08
9.08351e-06
2.9205e-08
9.08364e-06
6.37169e-08
9.07772e-06
7.09867e-08
9.07144e-06
5.52307e-08
9.06981e-06
6.0462e-08
9.06875e-06
7.56473e-08
9.06711e-06
8.00606e-08
9.06663e-06
8.31993e-08
9.0688e-06
9.11514e-08
9.0723e-06
1.00529e-07
9.07618e-06
1.05737e-07
1.07001e-07
9.08078e-06
9.56757e-06
7.35091e-08
9.56561e-06
9.07999e-08
9.55356e-06
-9.91347e-08
9.56452e-06
3.72762e-08
9.54688e-06
4.63838e-08
9.53212e-06
-7.92999e-09
9.53268e-06
6.37418e-08
9.52312e-06
6.47998e-08
9.51543e-06
3.68997e-08
9.51508e-06
6.40605e-08
9.51035e-06
7.57197e-08
9.50395e-06
6.16292e-08
9.50183e-06
6.25871e-08
9.50137e-06
7.61074e-08
9.50037e-06
8.10584e-08
9.50008e-06
8.34896e-08
9.50225e-06
8.89759e-08
9.50609e-06
9.66925e-08
9.5104e-06
1.01427e-07
1.02216e-07
9.51519e-06
1.00224e-05
6.12001e-08
1.00217e-05
9.15577e-08
1.0007e-05
-8.4444e-08
1.0017e-05
2.72303e-08
1.00029e-05
6.05189e-08
9.98593e-06
9.04514e-09
9.9851e-06
6.45681e-08
9.977e-06
7.29021e-08
9.96842e-06
4.54796e-08
9.96732e-06
6.51632e-08
9.96359e-06
7.94473e-08
9.95741e-06
6.78069e-08
9.95483e-06
6.51713e-08
9.95472e-06
7.62206e-08
9.95436e-06
8.14157e-08
9.95443e-06
8.34227e-08
9.95662e-06
8.67842e-08
9.96068e-06
9.26353e-08
9.96539e-06
9.6716e-08
9.71835e-08
9.97042e-06
1.0499e-05
5.08056e-08
1.04997e-05
9.09004e-08
1.04824e-05
-6.71119e-08
1.04903e-05
1.92671e-08
1.048e-05
7.08553e-08
1.04621e-05
2.69681e-08
1.04593e-05
6.73022e-08
1.04524e-05
7.98176e-08
1.04434e-05
5.44744e-08
1.04414e-05
6.72263e-08
1.04384e-05
8.2368e-08
1.04327e-05
7.35093e-08
1.04298e-05
6.81051e-08
1.04298e-05
7.61912e-08
1.043e-05
8.12037e-08
1.04306e-05
8.28793e-08
1.04329e-05
8.45107e-08
1.0437e-05
8.84429e-08
1.04421e-05
9.16648e-08
9.18646e-08
1.04474e-05
1.09985e-05
4.23584e-08
1.10014e-05
8.79641e-08
1.0981e-05
-4.67181e-08
1.09858e-05
1.44952e-08
1.09791e-05
7.75274e-08
1.09614e-05
4.46807e-08
1.09565e-05
7.21477e-08
1.09504e-05
8.59729e-08
1.09414e-05
6.34959e-08
1.09383e-05
7.03296e-08
1.09359e-05
8.47374e-08
1.09308e-05
7.85655e-08
1.09277e-05
7.12327e-08
1.09278e-05
7.61206e-08
1.09284e-05
8.05727e-08
1.09295e-05
8.17788e-08
1.0932e-05
8.20678e-08
1.09362e-05
8.41607e-08
1.09416e-05
8.63417e-08
8.62464e-08
1.09472e-05
1.15219e-05
3.58457e-08
1.1525e-05
8.48855e-08
1.15045e-05
-2.62387e-08
1.15053e-05
1.36819e-08
1.15014e-05
8.1367e-08
1.14848e-05
6.13239e-08
1.1478e-05
7.89627e-08
1.14721e-05
9.19044e-08
1.14633e-05
7.23003e-08
1.14592e-05
7.43755e-08
1.1457e-05
8.68972e-08
1.14527e-05
8.28752e-08
1.14496e-05
7.43731e-08
1.14497e-05
7.60319e-08
1.14506e-05
7.96646e-08
1.14523e-05
8.01021e-08
1.1455e-05
7.93781e-08
1.14593e-05
7.97966e-08
1.14649e-05
8.08132e-08
8.03386e-08
1.14708e-05
1.20705e-05
3.11649e-08
1.20735e-05
8.18727e-08
1.20531e-05
-5.79175e-09
1.20502e-05
1.65547e-08
1.20482e-05
8.33229e-08
1.20333e-05
7.62927e-08
1.20248e-05
8.74588e-08
1.20186e-05
9.80523e-08
1.20101e-05
8.08189e-08
1.20053e-05
7.91665e-08
1.20031e-05
8.91586e-08
1.19994e-05
8.64846e-08
1.19965e-05
7.7342e-08
1.19965e-05
7.59674e-08
1.19978e-05
7.84529e-08
1.19999e-05
7.7935e-08
1.20029e-05
7.63731e-08
1.20074e-05
7.53294e-08
1.20131e-05
7.51292e-08
7.41598e-08
1.20193e-05
1.26456e-05
2.81452e-08
1.26484e-05
7.91206e-08
1.26287e-05
1.38395e-08
1.2622e-05
2.32905e-08
1.26207e-05
8.45856e-08
1.26078e-05
8.92464e-08
1.2598e-05
9.72049e-08
1.25914e-05
1.04705e-07
1.2583e-05
8.91631e-08
1.25777e-05
8.44904e-08
1.25752e-05
9.16964e-08
1.25721e-05
8.95732e-08
1.25694e-05
8.00123e-08
1.25694e-05
7.59706e-08
1.25711e-05
7.68046e-08
1.25736e-05
7.54225e-08
1.2577e-05
7.29683e-08
1.25815e-05
7.0759e-08
1.25874e-05
6.93079e-08
6.77252e-08
1.25938e-05
1.32485e-05
2.6551e-08
1.32515e-05
7.61682e-08
1.32325e-05
3.28209e-08
1.32223e-05
3.35151e-08
1.32203e-05
8.65116e-08
1.32094e-05
1.00186e-07
1.31989e-05
1.07671e-07
1.31916e-05
1.12036e-07
1.31833e-05
9.75166e-08
1.31775e-05
9.02064e-08
1.31747e-05
9.45756e-08
1.31719e-05
9.23176e-08
1.31695e-05
8.23951e-08
1.31695e-05
7.59976e-08
1.31716e-05
7.47005e-08
1.31744e-05
7.2642e-08
1.31783e-05
6.90208e-08
1.31829e-05
6.61712e-08
1.31889e-05
6.33077e-08
6.10354e-08
1.31956e-05
1.38806e-05
2.61252e-08
1.38828e-05
7.39281e-08
1.38654e-05
5.02769e-08
1.38524e-05
4.6496e-08
1.38487e-05
9.01678e-08
1.38394e-05
1.09555e-07
1.38287e-05
1.18317e-07
1.38206e-05
1.20179e-07
1.38121e-05
1.05984e-07
1.3806e-05
9.63247e-08
1.38028e-05
9.77839e-08
1.38002e-05
9.48649e-08
1.37981e-05
8.45582e-08
1.37981e-05
7.59958e-08
1.38005e-05
7.22991e-08
1.38036e-05
6.95132e-08
1.38082e-05
6.44366e-08
1.38127e-05
6.16145e-08
1.3819e-05
5.70644e-08
5.40649e-08
1.3826e-05
1.45432e-05
2.66115e-08
1.45438e-05
7.33077e-08
1.45286e-05
6.5428e-08
1.45135e-05
6.1631e-08
1.45076e-05
9.60578e-08
1.4499e-05
1.18135e-07
1.44886e-05
1.28748e-07
1.44796e-05
1.2917e-07
1.44709e-05
1.14657e-07
1.44644e-05
1.02921e-07
1.44608e-05
1.01319e-07
1.44583e-05
9.73408e-08
1.44564e-05
8.65288e-08
1.44564e-05
7.59846e-08
1.44589e-05
6.98171e-08
1.44626e-05
6.58112e-08
1.44674e-05
5.95726e-08
1.44725e-05
5.64952e-08
1.44788e-05
5.08464e-08
4.66718e-08
1.44862e-05
1.52377e-05
2.77849e-08
1.52372e-05
7.38395e-08
1.52234e-05
7.91728e-08
1.52068e-05
7.82479e-08
1.51986e-05
1.04275e-07
1.519e-05
1.26722e-07
1.51799e-05
1.38901e-07
1.51702e-05
1.38833e-07
1.51611e-05
1.23747e-07
1.5154e-05
1.1001e-07
1.51501e-05
1.05267e-07
1.51475e-05
9.98588e-08
1.51457e-05
8.83523e-08
1.51457e-05
7.60186e-08
1.51482e-05
6.7336e-08
1.51525e-05
6.15107e-08
1.51573e-05
5.47657e-08
1.51635e-05
5.02279e-08
1.51697e-05
4.46934e-08
3.90219e-08
1.51774e-05
1.59656e-05
2.95053e-08
1.59634e-05
7.60133e-08
1.59509e-05
9.17116e-08
1.59337e-05
9.54142e-08
1.59231e-05
1.14863e-07
1.5914e-05
1.35882e-07
1.59039e-05
1.49031e-07
1.58937e-05
1.48947e-07
1.5884e-05
1.3345e-07
1.58764e-05
1.1765e-07
1.58719e-05
1.09738e-07
1.58692e-05
1.02542e-07
1.58675e-05
9.01369e-08
1.58673e-05
7.61373e-08
1.58698e-05
6.48893e-08
1.58744e-05
5.68581e-08
1.58795e-05
4.96916e-08
1.58863e-05
4.34329e-08
1.58937e-05
3.73242e-08
3.20179e-08
1.59007e-05
1.67284e-05
3.16617e-08
1.67241e-05
8.0326e-08
1.67128e-05
1.03028e-07
1.66956e-05
1.12609e-07
1.66828e-05
1.27707e-07
1.66726e-05
1.46028e-07
1.66622e-05
1.59431e-07
1.66517e-05
1.59497e-07
1.66413e-05
1.43822e-07
1.6633e-05
1.26009e-07
1.66278e-05
1.1487e-07
1.66248e-05
1.05541e-07
1.6623e-05
9.20015e-08
1.66227e-05
7.64055e-08
1.6625e-05
6.2548e-08
1.66297e-05
5.22091e-08
1.66355e-05
4.38498e-08
1.66427e-05
3.62868e-08
1.66505e-05
2.94664e-08
2.39579e-08
1.66586e-05
1.75279e-05
3.41551e-08
1.75233e-05
8.4935e-08
1.75111e-05
1.15141e-07
1.74939e-05
1.29866e-07
1.74791e-05
1.42492e-07
1.74676e-05
1.57511e-07
1.74567e-05
1.7038e-07
1.74455e-05
1.70625e-07
1.74345e-05
1.54882e-07
1.74253e-05
1.35213e-07
1.74193e-05
1.20896e-07
1.74157e-05
1.09064e-07
1.74136e-05
9.40831e-08
1.74131e-05
7.69792e-08
1.74152e-05
6.04553e-08
1.74198e-05
4.75467e-08
1.74263e-05
3.73762e-08
1.7434e-05
2.86057e-08
1.74425e-05
2.09885e-08
1.47488e-08
1.74517e-05
1.83655e-05
3.69567e-08
1.83594e-05
9.10934e-08
1.83474e-05
1.27138e-07
1.83302e-05
1.47093e-07
1.83138e-05
1.58855e-07
1.83007e-05
1.70579e-07
1.82889e-05
1.82201e-07
1.8277e-05
1.82494e-07
1.82651e-05
1.6678e-07
1.8255e-05
1.45388e-07
1.82478e-05
1.28053e-07
1.82435e-05
1.13412e-07
1.82409e-05
9.66205e-08
1.82399e-05
7.80447e-08
1.82416e-05
5.87427e-08
1.82462e-05
4.29024e-08
1.82531e-05
3.04652e-08
1.82616e-05
2.01288e-08
1.8271e-05
1.15444e-08
4.60637e-09
1.82812e-05
1.92433e-05
4.00574e-08
1.92362e-05
9.81951e-08
1.92235e-05
1.39829e-07
1.92062e-05
1.64368e-07
1.91886e-05
1.765e-07
1.91738e-05
1.85389e-07
1.91608e-05
1.95214e-07
1.9148e-05
1.95263e-07
1.91351e-05
1.79713e-07
1.91237e-05
1.56767e-07
1.91151e-05
1.36577e-07
1.91096e-05