/*--------------------------------*- C++ -*----------------------------------*\
| =========                 |                                                 |
| \\      /  F ield         | OpenFOAM: The Open Source CFD Toolbox           |
|  \\    /   O peration     | Version:  v2012                                 |
|   \\  /    A nd           | Website:  www.openfoam.com                      |
|    \\/     M anipulation  |                                                 |
\*---------------------------------------------------------------------------*/
FoamFile
{
    version     2.0;
    format      ascii;
    class       volVectorField;
    location    "2";
    object      U;
}
// * * * * * * * * * * * * * * * * * * * * * * * * * * * * * * * * * * * * * //

dimensions      [0 1 -1 0 0 0 0];


internalField   nonuniform List<vector> 
17600
(
(0.84976 0.00702919 0)
(1.1545 -0.0062964 0)
(0.820608 0.0012749 0)
(1.14852 0.00106293 0)
(0.82446 -0.00109299 0)
(1.13136 -7.24155e-05 0)
(0.834289 0.000878295 0)
(1.12211 -0.000455129 0)
(0.844078 0.000820199 0)
(1.11108 2.95424e-05 0)
(0.853123 0.00116098 0)
(1.10264 -0.000259719 0)
(0.858226 0.000922122 0)
(1.09674 -0.000706924 0)
(0.859475 0.0010689 0)
(1.0934 -0.00103249 0)
(0.854803 0.00159392 0)
(1.092 -0.00141778 0)
(0.84213 0.00251183 0)
(1.09095 -0.00223488 0)
(0.857574 0.00691774 0)
(1.13965 -0.00588714 0)
(0.82917 0.00115661 0)
(1.13202 0.00123506 0)
(0.838961 -0.00113804 0)
(1.11402 5.45633e-05 0)
(0.851974 0.000755294 0)
(1.102 -0.000330014 0)
(0.865762 0.000710844 0)
(1.08715 0.00020153 0)
(0.880594 0.001058 0)
(1.07282 -0.000103258 0)
(0.894101 0.000803913 0)
(1.05788 -0.000554776 0)
(0.908127 0.00101526 0)
(1.03989 -0.000959885 0)
(0.923627 0.00183162 0)
(1.01493 -0.00173971 0)
(0.942328 0.00378536 0)
(0.976936 -0.00355436 0)
(0.873071 0.00685062 0)
(1.1175 -0.00548813 0)
(0.848552 0.00102818 0)
(1.10294 0.00132397 0)
(0.866467 -0.00115843 0)
(1.08322 0.00010297 0)
(0.882952 0.00069199 0)
(1.06844 -0.000295886 0)
(0.90111 0.000703628 0)
(1.05036 0.000170303 0)
(0.920236 0.00108978 0)
(1.0331 -0.00017584 0)
(0.93752 0.00091416 0)
(1.01628 -0.000695874 0)
(0.953226 0.00124588 0)
(0.999642 -0.00115625 0)
(0.96554 0.00216534 0)
(0.983663 -0.00181633 0)
(0.972038 0.0040989 0)
(0.969162 -0.00216659 0)
(0.894108 0.00685361 0)
(1.0924 -0.00517427 0)
(0.876628 0.00100896 0)
(1.0688 0.00128498 0)
(0.901018 -0.00110261 0)
(1.04844 4.97288e-05 0)
(0.917393 0.000733073 0)
(1.034 -0.000393455 0)
(0.935756 0.000811974 0)
(1.01758 4.86611e-07 0)
(0.952853 0.00124082 0)
(1.00467 -0.00037331 0)
(0.96592 0.00110915 0)
(0.99467 -0.000905305 0)
(0.974908 0.00148071 0)
(0.987274 -0.00132153 0)
(0.978771 0.00239752 0)
(0.981765 -0.00178423 0)
(0.97739 0.00426036 0)
(0.975944 -0.000897159 0)
(0.917651 0.0068922 0)
(1.06794 -0.00494414 0)
(0.908105 0.00111704 0)
(1.03771 0.00114899 0)
(0.93449 -0.000990115 0)
(1.01972 -4.60187e-05 0)
(0.946612 0.000816628 0)
(1.0093 -0.000537388 0)
(0.960876 0.000938566 0)
(0.998502 -0.000167605 0)
(0.972358 0.00135973 0)
(0.992636 -0.000526591 0)
(0.979662 0.00121413 0)
(0.989392 -0.00101868 0)
(0.983559 0.0015788 0)
(0.987341 -0.00136781 0)
(0.984013 0.00248345 0)
(0.984888 -0.00167317 0)
(0.981482 0.00436151 0)
(0.979944 0.000153277 0)
(0.940543 0.00694037 0)
(1.047 -0.00479175 0)
(0.937451 0.00130834 0)
(1.01539 0.00096733 0)
(0.961126 -0.000866375 0)
(1.00232 -0.000127321 0)
(0.967327 0.000885671 0)
(0.997279 -0.000656273 0)
(0.976254 0.00101994 0)
(0.992073 -0.000281979 0)
(0.982848 0.00140057 0)
(0.991065 -0.000617288 0)
(0.986727 0.00123578 0)
(0.991003 -0.00107392 0)
(0.988686 0.00160238 0)
(0.990514 -0.00136818 0)
(0.988407 0.00250102 0)
(0.988533 -0.00149561 0)
(0.985857 0.0043983 0)
(0.983906 0.00115534 0)
(0.960244 0.00697932 0)
(1.03114 -0.00470081 0)
(0.961074 0.00152459 0)
(1.00324 0.000790437 0)
(0.979391 -0.000764981 0)
(0.99543 -0.000173027 0)
(0.980785 0.000921162 0)
(0.99455 -0.000733164 0)
(0.985579 0.0010539 0)
(0.992665 -0.000354609 0)
(0.989418 0.00139411 0)
(0.993669 -0.000679144 0)
(0.991833 0.00122411 0)
(0.994483 -0.00111112 0)
(0.993152 0.00160052 0)
(0.994256 -0.00134108 0)
(0.992609 0.00247882 0)
(0.99234 -0.00123926 0)
(0.98997 0.0043698 0)
(0.988033 0.00213538 0)
(0.975364 0.00699504 0)
(1.02038 -0.00464836 0)
(0.977892 0.00171798 0)
(0.998954 0.000646688 0)
(0.990693 -0.000694593 0)
(0.994938 -0.000191513 0)
(0.98953 0.000931399 0)
(0.996227 -0.000779442 0)
(0.991886 0.00106329 0)
(0.995653 -0.000406531 0)
(0.99444 0.0013715 0)
(0.997111 -0.000728808 0)
(0.996152 0.00120423 0)
(0.997965 -0.00113489 0)
(0.997092 0.0015857 0)
(0.997688 -0.0012803 0)
(0.996294 0.00242178 0)
(0.995744 -0.000909716 0)
(0.993549 0.0042864 0)
(0.991683 0.00307116 0)
(0.98576 0.00698189 0)
(1.01374 -0.00461394 0)
(0.988663 0.00186281 0)
(0.99891 0.000540107 0)
(0.99727 -0.000646659 0)
(0.996864 -0.000200185 0)
(0.995351 0.000930266 0)
(0.998959 -0.000808081 0)
(0.996451 0.00106544 0)
(0.998701 -0.000447902 0)
(0.998367 0.0013462 0)
(1.00008 -0.000767286 0)
(0.999588 0.00118214 0)
(1.00076 -0.00114028 0)
(1.00019 0.00155724 0)
(1.00036 -0.00118243 0)
(0.99915 0.00233495 0)
(0.998365 -0.000522337 0)
(0.996334 0.00416994 0)
(0.994528 0.00393494 0)
(0.992192 0.00694247 0)
(1.00992 -0.00458434 0)
(0.994939 0.00195586 0)
(1.00025 0.000462273 0)
(1.00094 -0.000609624 0)
(0.998936 -0.000210575 0)
(0.999129 0.000926023 0)
(1.00127 -0.00082676 0)
(0.999625 0.00106688 0)
(1.00101 -0.00048146 0)
(1.00116 0.00132105 0)
(1.0022 -0.000792667 0)
(1.002 0.00115634 0)
(1.00268 -0.00112322 0)
(1.00232 0.00150927 0)
(1.00217 -0.00104219 0)
(1.00108 0.00221779 0)
(1.00014 -9.06883e-05 0)
(0.998258 0.00405142 0)
(0.996533 0.00470591 0)
(0.995803 0.00688327 0)
(1.00784 -0.00455263 0)
(0.998285 0.00200733 0)
(1.00153 0.000403691 0)
(1.00288 -0.000576538 0)
(1.00039 -0.000225751 0)
(1.00138 0.000920963 0)
(1.0028 -0.000839633 0)
(1.00162 0.0010679 0)
(1.00251 -0.000507735 0)
(1.00292 0.0012943 0)
(1.00352 -0.000803725 0)
(1.00348 0.0011221 0)
(1.00385 -0.00108029 0)
(1.00359 0.00143693 0)
(1.00325 -0.00086125 0)
(1.00223 0.00207367 0)
(1.00121 0.000374881 0)
(0.999465 0.00396199 0)
(0.997844 0.00536567 0)
(0.99767 0.0068104 0)
(1.00676 -0.00451546 0)
(0.999924 0.00203029 0)
(1.00234 0.000357613 0)
(1.00383 -0.000545513 0)
(1.0012 -0.000244118 0)
(1.00258 0.000914197 0)
(1.00367 -0.000848812 0)
(1.00275 0.00106629 0)
(1.00337 -0.000526391 0)
(1.00391 0.00126184 0)
(1.00427 -0.00079894 0)
(1.00428 0.00107415 0)
(1.00449 -0.00100938 0)
(1.00425 0.00133975 0)
(1.00382 -0.000650602 0)
(1.00283 0.00192043 0)
(1.0018 0.000847443 0)
(1.00019 0.00392067 0)
(0.998681 0.00590064 0)
(0.998584 0.00672775 0)
(1.00621 -0.00447115 0)
(1.00067 0.00203464 0)
(1.00274 0.000320265 0)
(1.00424 -0.000517461 0)
(1.0016 -0.000262847 0)
(1.00315 0.00090376 0)
(1.00412 -0.000854847 0)
(1.00333 0.00105935 0)
(1.00382 -0.000536373 0)
(1.00441 0.00121926 0)
(1.00465 -0.000776974 0)
(1.00467 0.00100828 0)
(1.0048 -0.000911058 0)
(1.00456 0.00122067 0)
(1.00409 -0.000421148 0)
(1.00313 0.00177667 0)
(1.0021 0.00129061 0)
(1.00063 0.00394008 0)
(0.999243 0.00631668 0)
(0.999027 0.00663725 0)
(1.00591 -0.00441878 0)
(1.00101 0.00202586 0)
(1.0029 0.00029046 0)
(1.0044 -0.000494238 0)
(1.00177 -0.000279023 0)
(1.00339 0.000887894 0)
(1.00434 -0.000857015 0)
(1.00362 0.00104435 0)
(1.00406 -0.000536009 0)
(1.00465 0.00116341 0)
(1.00484 -0.000737193 0)
(1.00484 0.000923562 0)
(1.00494 -0.000792852 0)
(1.0047 0.00109089 0)
(1.00421 -0.000185481 0)
(1.00328 0.00165591 0)
(1.00228 0.0016816 0)
(1.00094 0.00402151 0)
(0.999672 0.00663174 0)
(0.999249 0.00653967 0)
(1.00574 -0.00435769 0)
(1.00118 0.00200606 0)
(1.00294 0.000268188 0)
(1.00445 -0.000477319 0)
(1.00185 -0.00029069 0)
(1.00349 0.000865333 0)
(1.00444 -0.000852817 0)
(1.00376 0.0010186 0)
(1.00418 -0.00052304 0)
(1.00477 0.00109174 0)
(1.00493 -0.000677548 0)
(1.00492 0.00081849 0)
(1.00501 -0.000653558 0)
(1.00476 0.000946498 0)
(1.00427 5.77942e-05 0)
(1.00338 0.00158439 0)
(1.00242 0.00202582 0)
(1.0012 0.00416131 0)
(1.00005 0.00687162 0)
(0.999365 0.00643522 0)
(1.00562 -0.00428725 0)
(1.00127 0.00197556 0)
(1.00294 0.000254001 0)
(1.00447 -0.000468349 0)
(1.00188 -0.000295434 0)
(1.00352 0.000833982 0)
(1.00449 -0.000840437 0)
(1.00383 0.000979718 0)
(1.00425 -0.000495819 0)
(1.00482 0.00100256 0)
(1.00497 -0.000599595 0)
(1.00496 0.000698445 0)
(1.00505 -0.000502089 0)
(1.0048 0.00080103 0)
(1.0043 0.000296478 0)
(1.00347 0.0015668 0)
(1.00255 0.00232939 0)
(1.00146 0.00434336 0)
(1.00041 0.00705652 0)
(0.999428 0.00632388 0)
(1.00552 -0.00420687 0)
(1.00135 0.00193382 0)
(1.00291 0.000248943 0)
(1.00446 -0.000469401 0)
(1.00191 -0.000291193 0)
(1.00353 0.000792581 0)
(1.00452 -0.00081763 0)
(1.00387 0.000925518 0)
(1.00429 -0.000452981 0)
(1.00485 0.000895573 0)
(1.005 -0.000507793 0)
(1.00498 0.00057113 0)
(1.00507 -0.000356217 0)
(1.00484 0.0006841 0)
(1.00435 0.000501219 0)
(1.00356 0.00158576 0)
(1.00269 0.00258966 0)
(1.00171 0.00454598 0)
(1.00077 0.00720226 0)
(0.999461 0.00620551 0)
(1.00543 -0.00411602 0)
(1.0014 0.00188005 0)
(1.00288 0.000254229 0)
(1.00446 -0.000482042 0)
(1.00193 -0.000276965 0)
(1.00352 0.0007395 0)
(1.00453 -0.000781229 0)
(1.00389 0.00085469 0)
(1.00431 -0.000395385 0)
(1.00487 0.000773282 0)
(1.00501 -0.000406887 0)
(1.005 0.00044137 0)
(1.00509 -0.000221158 0)
(1.00488 0.00059698 0)
(1.0044 0.000667575 0)
(1.00367 0.00164362 0)
(1.00286 0.0028227 0)
(1.00198 0.00476341 0)
(1.00114 0.00733086 0)
(0.99948 0.00607999 0)
(1.00535 -0.0040143 0)
(1.00146 0.00181352 0)
(1.00283 0.000270891 0)
(1.00444 -0.000507492 0)
(1.00195 -0.000249915 0)
(1.00351 0.000671415 0)
(1.00454 -0.000731419 0)
(1.00391 0.000768579 0)
(1.00432 -0.000325754 0)
(1.00488 0.000640041 0)
(1.00501 -0.000303723 0)
(1.00502 0.000320023 0)
(1.0051 -0.000105041 0)
(1.00492 0.000538666 0)
(1.00445 0.000806095 0)
(1.00379 0.00173454 0)
(1.00304 0.00303629 0)
(1.00226 0.00498598 0)
(1.0015 0.00745795 0)
(0.999491 0.00594703 0)
(1.00527 -0.00390079 0)
(1.00151 0.00173256 0)
(1.00278 0.000301317 0)
(1.00443 -0.000547872 0)
(1.00197 -0.000208626 0)
(1.0035 0.000588343 0)
(1.00455 -0.000671268 0)
(1.00392 0.000670838 0)
(1.00432 -0.000247247 0)
(1.00488 0.000501163 0)
(1.00501 -0.00020751 0)
(1.00503 0.000213619 0)
(1.00512 -1.09323e-05 0)
(1.00497 0.000508934 0)
(1.00453 0.000926428 0)
(1.00392 0.00184301 0)
(1.00324 0.00322962 0)
(1.00254 0.00519907 0)
(1.00187 0.00758847 0)
(0.999498 0.00580638 0)
(1.00519 -0.00377485 0)
(1.00156 0.00163617 0)
(1.00273 0.000345419 0)
(1.00442 -0.000604939 0)
(1.00199 -0.000151889 0)
(1.00349 0.00048989 0)
(1.00456 -0.000598475 0)
(1.00394 0.000558288 0)
(1.00432 -0.000163491 0)
(1.00489 0.000365923 0)
(1.005 -0.000130219 0)
(1.00504 0.000125932 0)
(1.00514 5.48765e-05 0)
(1.00503 0.000500051 0)
(1.00461 0.0010329 0)
(1.00406 0.00196171 0)
(1.00346 0.00340613 0)
(1.00285 0.00539438 0)
(1.00224 0.00772198 0)
(0.999504 0.00565798 0)
(1.00511 -0.00363583 0)
(1.00161 0.00152331 0)
(1.00267 0.000404533 0)
(1.0044 -0.000680022 0)
(1.00202 -8.0299e-05 0)
(1.00348 0.000379394 0)
(1.00456 -0.00051455 0)
(1.00395 0.000433013 0)
(1.00432 -8.3086e-05 0)
(1.00489 0.000242303 0)
(1.005 -8.28376e-05 0)
(1.00506 6.05545e-05 0)
(1.00517 9.01108e-05 0)
(1.00509 0.000505852 0)
(1.0047 0.0011296 0)
(1.00422 0.00209702 0)
(1.0037 0.00357549 0)
(1.00316 0.00557573 0)
(1.00261 0.00785708 0)
(0.999509 0.00550119 0)
(1.00503 -0.00348203 0)
(1.00167 0.00139164 0)
(1.00261 0.000481879 0)
(1.00438 -0.000774502 0)
(1.00204 5.67924e-06 0)
(1.00346 0.000258705 0)
(1.00456 -0.000426044 0)
(1.00397 0.000311966 0)
(1.00432 -1.8461e-05 0)
(1.0049 0.000135188 0)
(1.005 -6.76683e-05 0)
(1.00507 2.30054e-05 0)
(1.0052 0.000104398 0)
(1.00515 0.000519893 0)
(1.00481 0.00121176 0)
(1.00438 0.00224816 0)
(1.00395 0.00373548 0)
(1.00349 0.00574676 0)
(1.00298 0.00798689 0)
(0.999515 0.00533603 0)
(1.00494 -0.00331365 0)
(1.00172 0.00124062 0)
(1.00256 0.000576129 0)
(1.00437 -0.000886673 0)
(1.00206 0.000103659 0)
(1.00345 0.000132117 0)
(1.00457 -0.00034019 0)
(1.00398 0.000204689 0)
(1.00431 2.47687e-05 0)
(1.0049 5.60497e-05 0)
(1.00501 -7.81822e-05 0)
(1.00509 1.01943e-05 0)
(1.00524 0.0001108 0)
(1.00522 0.000534559 0)
(1.00492 0.00126744 0)
(1.00456 0.00239681 0)
(1.00421 0.00387279 0)
(1.00383 0.00589911 0)
(1.00336 0.0080998 0)
(0.999521 0.00516349 0)
(1.00485 -0.00313014 0)
(1.00178 0.0010699 0)
(1.00249 0.000685712 0)
(1.00435 -0.00101245 0)
(1.00208 0.000206838 0)
(1.00343 1.7773e-06 0)
(1.00457 -0.000268766 0)
(1.004 0.000117591 0)
(1.00432 3.69651e-05 0)
(1.0049 1.19433e-05 0)
(1.00501 -0.00011274 0)
(1.00511 -4.88246e-06 0)
(1.00528 0.000121884 0)
(1.0053 0.000543909 0)
(1.00506 0.00131062 0)
(1.00475 0.00252281 0)
(1.00449 0.00399355 0)
(1.00418 0.00600304 0)
(1.00375 0.00818556 0)
(0.999529 0.00498083 0)
(1.00475 -0.00292643 0)
(1.00184 0.000875722 0)
(1.00243 0.000812987 0)
(1.00434 -0.00115432 0)
(1.0021 0.000316001 0)
(1.00342 -0.000130648 0)
(1.00458 -0.000211882 0)
(1.00401 4.77079e-05 0)
(1.00432 2.3122e-05 0)
(1.0049 -1.84971e-05 0)
(1.00502 -0.000142086 0)
(1.00513 -5.3062e-05 0)
(1.00532 0.000151869 0)
(1.00539 0.000524893 0)
(1.00521 0.00137689 0)
(1.00496 0.00260461 0)
(1.00477 0.00414441 0)
(1.00455 0.00603483 0)
(1.00416 0.00823325 0)
(0.999537 0.00479 0)
(1.00464 -0.00270619 0)
(1.0019 0.000660178 0)
(1.00236 0.000951864 0)
(1.00432 -0.00130346 0)
(1.00213 0.000419199 0)
(1.0034 -0.000241666 0)
(1.00459 -0.000190636 0)
(1.00402 1.51724e-05 0)
(1.00432 -2.49748e-05 0)
(1.0049 -3.67982e-05 0)
(1.00503 -0.000165179 0)
(1.00516 -9.95406e-05 0)
(1.00536 0.000183979 0)
(1.00548 0.000526747 0)
(1.00536 0.0014595 0)
(1.00519 0.0027008 0)
(1.00506 0.00431281 0)
(1.00492 0.00607833 0)
(1.00459 0.00825828 0)
(0.999545 0.00459301 0)
(1.00453 -0.00247053 0)
(1.00196 0.00042889 0)
(1.00229 0.00109294 0)
(1.0043 -0.00144749 0)
(1.00215 0.000502387 0)
(1.00338 -0.000314035 0)
(1.0046 -0.0002097 0)
(1.00403 1.92899e-05 0)
(1.00433 -9.7992e-05 0)
(1.0049 -5.10597e-05 0)
(1.00503 -0.000182565 0)
(1.00519 -0.000133237 0)
(1.00542 0.000234392 0)
(1.00558 0.000648423 0)
(1.00554 0.00157764 0)
(1.00543 0.00287213 0)
(1.00536 0.00447932 0)
(1.0053 0.00620747 0)
(1.00503 0.00827347 0)
(0.999553 0.00438477 0)
(1.00442 -0.00221253 0)
(1.00202 0.000179053 0)
(1.00223 0.00124012 0)
(1.00428 -0.00159026 0)
(1.00218 0.000560464 0)
(1.00336 -0.000347485 0)
(1.00462 -0.000263493 0)
(1.00404 4.55906e-05 0)
(1.00433 -0.000170351 0)
(1.00491 -7.07478e-05 0)
(1.00504 -0.000160069 0)
(1.00523 -0.000140347 0)
(1.00549 0.000348375 0)
(1.00569 0.000861671 0)
(1.00572 0.00173957 0)
(1.00568 0.00304435 0)
(1.00567 0.00464517 0)
(1.00567 0.00635715 0)
(1.00547 0.00829243 0)
(0.999562 0.00417081 0)
(1.00429 -0.00194056 0)
(1.00208 -7.92623e-05 0)
(1.00216 0.0013813 0)
(1.00425 -0.00171874 0)
(1.00222 0.000579613 0)
(1.00332 -0.00033566 0)
(1.00464 -0.000359292 0)
(1.00405 0.000100402 0)
(1.00433 -0.000236448 0)
(1.00492 -7.72882e-05 0)
(1.00505 -8.93984e-05 0)
(1.00527 -5.31961e-05 0)
(1.00557 0.000496652 0)
(1.00581 0.00109298 0)
(1.00591 0.00191093 0)
(1.00595 0.00316731 0)
(1.006 0.00477498 0)
(1.00606 0.0064702 0)
(1.0059 0.0082957 0)
(0.999571 0.00395047 0)
(1.00416 -0.00165864 0)
(1.00214 -0.000332136 0)
(1.00208 0.00150008 0)
(1.00422 -0.00181021 0)
(1.00226 0.000552893 0)
(1.00329 -0.000282275 0)
(1.00467 -0.000477182 0)
(1.00406 0.000164167 0)
(1.00433 -0.000260097 0)
(1.00494 -8.31515e-05 0)
(1.00506 4.98461e-05 0)
(1.00532 8.2403e-05 0)
(1.00567 0.00062371 0)
(1.00593 0.00131231 0)
(1.00609 0.0020907 0)
(1.00622 0.00327033 0)
(1.00634 0.00486277 0)
(1.00644 0.0065475 0)
(1.00632 0.00828104 0)
(0.999582 0.00372324 0)
(1.00401 -0.00136929 0)
(1.0022 -0.000587255 0)
(1.00201 0.00158618 0)
(1.00418 -0.0018651 0)
(1.00231 0.000482286 0)
(1.00324 -0.000199731 0)
(1.00469 -0.000602915 0)
(1.00407 0.000235428 0)
(1.00432 -0.000219046 0)
(1.00497 -7.05299e-05 0)
(1.00509 0.000239016 0)
(1.00537 0.000221335 0)
(1.00577 0.000709322 0)
(1.00606 0.00148608 0)
(1.00627 0.00227409 0)
(1.0065 0.00336959 0)
(1.00669 0.00491295 0)
(1.00684 0.00657956 0)
(1.00674 0.00823749 0)
(0.999594 0.0034941 0)
(1.00386 -0.00108172 0)
(1.00226 -0.00083523 0)
(1.00194 0.00163751 0)
(1.00414 -0.00189552 0)
(1.00237 0.000379361 0)
(1.00319 -9.29108e-05 0)
(1.00472 -0.000717017 0)
(1.0041 0.000313332 0)
(1.00431 -9.24738e-05 0)
(1.00501 -3.92419e-05 0)
(1.00512 0.000415517 0)
(1.00542 0.000385744 0)
(1.00588 0.000779923 0)
(1.00621 0.00160864 0)
(1.00646 0.002454 0)
(1.00677 0.00347008 0)
(1.00705 0.00493004 0)
(1.00724 0.00655772 0)
(1.00715 0.00815311 0)
(0.999607 0.00326136 0)
(1.0037 -0.00079958 0)
(1.00231 -0.00105116 0)
(1.00188 0.00165061 0)
(1.00408 -0.00189146 0)
(1.00243 0.000249221 0)
(1.00314 3.1046e-05 0)
(1.00474 -0.000796032 0)
(1.00414 0.000390585 0)
(1.0043 9.30256e-05 0)
(1.00506 -1.72539e-05 0)
(1.00516 0.000546064 0)
(1.00545 0.000571402 0)
(1.00599 0.000860489 0)
(1.00638 0.00169411 0)
(1.00665 0.00261728 0)
(1.00703 0.00357813 0)
(1.0074 0.0049253 0)
(1.00764 0.00649055 0)
(1.00756 0.00803057 0)
(0.99962 0.00302754 0)
(1.00353 -0.000528952 0)
(1.00236 -0.00123035 0)
(1.00182 0.00162735 0)
(1.00402 -0.00185695 0)
(1.0025 9.96189e-05 0)
(1.00309 0.000183217 0)
(1.00477 -0.000823575 0)
(1.0042 0.000453296 0)
(1.00428 0.000304577 0)
(1.00509 1.4994e-05 0)
(1.00522 0.000633071 0)
(1.00549 0.000770755 0)
(1.0061 0.00096537 0)
(1.00656 0.0017588 0)
(1.00685 0.00275302 0)
(1.00729 0.00369513 0)
(1.00775 0.0049194 0)
(1.00805 0.006397 0)
(1.00797 0.00788036 0)
(0.999635 0.00279521 0)
(1.00335 -0.000276929 0)
(1.0024 -0.00137258 0)
(1.00176 0.00157762 0)
(1.00395 -0.00179869 0)
(1.00258 -5.68776e-05 0)
(1.00304 0.000363302 0)
(1.00479 -0.00080022 0)
(1.00427 0.000485746 0)
(1.00426 0.000531627 0)
(1.00512 7.15041e-05 0)
(1.00529 0.000676733 0)
(1.00553 0.000966324 0)
(1.00619 0.00109996 0)
(1.00674 0.00181355 0)
(1.00707 0.00284972 0)
(1.00755 0.00380421 0)
(1.00809 0.00491831 0)
(1.00846 0.00628646 0)
(1.00839 0.00770447 0)
(0.999651 0.0025646 0)
(1.00316 -4.51904e-05 0)
(1.00242 -0.00148079 0)
(1.00171 0.00150828 0)
(1.00387 -0.00170548 0)
(1.00267 -0.000217132 0)
(1.003 0.000550609 0)
(1.0048 -0.000729449 0)
(1.00436 0.000480097 0)
(1.00424 0.000747872 0)
(1.00514 0.00015926 0)
(1.00538 0.000688536 0)
(1.00558 0.00113789 0)
(1.00628 0.00125728 0)
(1.00693 0.00186419 0)
(1.00731 0.00290534 0)
(1.0078 0.00389152 0)
(1.00842 0.00492325 0)
(1.00885 0.00616837 0)
(1.0088 0.00750599 0)
(0.999668 0.00233676 0)
(1.00297 0.000165422 0)
(1.00244 -0.00155994 0)
(1.00166 0.00142689 0)
(1.00378 -0.00157338 0)
(1.00277 -0.000359656 0)
(1.00297 0.000732651 0)
(1.00479 -0.000609949 0)
(1.00446 0.000439685 0)
(1.00422 0.000944491 0)
(1.00514 0.000287809 0)
(1.00547 0.000694047 0)
(1.00565 0.00127897 0)
(1.00637 0.00143057 0)
(1.00712 0.00192314 0)
(1.00756 0.00293143 0)
(1.00807 0.00395439 0)
(1.00873 0.00493364 0)
(1.00924 0.00605292 0)
(1.0092 0.00729168 0)
(0.999687 0.00211506 0)
(1.00278 0.000346686 0)
(1.00245 -0.00160618 0)
(1.00163 0.00134474 0)
(1.00368 -0.00139706 0)
(1.00288 -0.000488107 0)
(1.00295 0.000887977 0)
(1.00478 -0.000445936 0)
(1.00457 0.000376938 0)
(1.00423 0.0011139 0)
(1.00513 0.000459005 0)
(1.00557 0.000708442 0)
(1.00575 0.00138173 0)
(1.00645 0.00160626 0)
(1.0073 0.00199943 0)
(1.00782 0.00294217 0)
(1.00835 0.00399098 0)
(1.00904 0.00494058 0)
(1.00961 0.00594107 0)
(1.0096 0.00706443 0)
(0.999706 0.00190039 0)
(1.00259 0.000501281 0)
(1.00246 -0.00162133 0)
(1.0016 0.00126266 0)
(1.00358 -0.00117669 0)
(1.00299 -0.000605184 0)
(1.00296 0.00100337 0)
(1.00475 -0.000242833 0)
(1.00469 0.000316345 0)
(1.00425 0.00123973 0)
(1.00511 0.000661146 0)
(1.00567 0.000741959 0)
(1.00586 0.00145132 0)
(1.00653 0.00177723 0)
(1.00746 0.00209861 0)
(1.00809 0.00294782 0)
(1.00865 0.00399374 0)
(1.00934 0.00492686 0)
(1.00996 0.00582442 0)
(1.00999 0.00682503 0)
(0.999727 0.00169199 0)
(1.00239 0.000634941 0)
(1.00245 -0.00161754 0)
(1.00159 0.00117159 0)
(1.00347 -0.00091495 0)
(1.00311 -0.000682849 0)
(1.00298 0.00107663 0)
(1.00471 -1.86688e-05 0)
(1.00481 0.000277533 0)
(1.0043 0.00131186 0)
(1.00509 0.000877065 0)
(1.00576 0.000804616 0)
(1.00599 0.00149856 0)
(1.00663 0.00193419 0)
(1.00762 0.00221673 0)
(1.00836 0.00295391 0)
(1.00895 0.00396136 0)
(1.00964 0.00488396 0)
(1.01029 0.00570208 0)
(1.01036 0.00658411 0)
(0.999749 0.00149105 0)
(1.0022 0.000746967 0)
(1.00244 -0.00159483 0)
(1.00159 0.00107079 0)
(1.00335 -0.000618493 0)
(1.00322 -0.00071235 0)
(1.00303 0.00110633 0)
(1.00467 0.000221113 0)
(1.00492 0.000270429 0)
(1.00437 0.00134548 0)
(1.00507 0.0010931 0)
(1.00584 0.000900579 0)
(1.00614 0.00152976 0)
(1.00674 0.00206241 0)
(1.00777 0.00234026 0)
(1.00862 0.00296194 0)
(1.00927 0.00389994 0)
(1.00995 0.00480993 0)
(1.0106 0.00557375 0)
(1.0107 0.00634981 0)
(0.999771 0.00130036 0)
(1.00201 0.000838257 0)
(1.00242 -0.0015528 0)
(1.00161 0.000954988 0)
(1.00324 -0.000307839 0)
(1.00332 -0.000687695 0)
(1.0031 0.00110567 0)
(1.00462 0.00047272 0)
(1.00503 0.000304019 0)
(1.00447 0.00134798 0)
(1.00505 0.00128294 0)
(1.00591 0.0010185 0)
(1.0063 0.00155241 0)
(1.00688 0.00215603 0)
(1.00792 0.00245999 0)
(1.00886 0.00297818 0)
(1.00958 0.00382378 0)
(1.01026 0.00470907 0)
(1.0109 0.00543679 0)
(1.01103 0.00612322 0)
(0.999793 0.00112166 0)
(1.00182 0.000909038 0)
(1.00238 -0.00149043 0)
(1.00165 0.000823697 0)
(1.00314 -8.50014e-06 0)
(1.0034 -0.000599381 0)
(1.00319 0.00108087 0)
(1.00457 0.000711501 0)
(1.00511 0.000388271 0)
(1.00459 0.00133936 0)
(1.00505 0.00144494 0)
(1.00596 0.00115579 0)
(1.00646 0.00157969 0)
(1.00703 0.00221781 0)
(1.00806 0.0025665 0)
(1.00909 0.0030039 0)
(1.00989 0.00374418 0)
(1.01058 0.00458657 0)
(1.0112 0.00528658 0)
(1.01133 0.00590064 0)
(0.999816 0.000955698 0)
(1.00164 0.000961955 0)
(1.00234 -0.00139652 0)
(1.00171 0.000678059 0)
(1.00304 0.000278022 0)
(1.00347 -0.00044547 0)
(1.00329 0.00104934 0)
(1.00454 0.000924225 0)
(1.00518 0.000518195 0)
(1.00471 0.0013385 0)
(1.00507 0.00158641 0)
(1.006 0.00131066 0)
(1.00662 0.0016183 0)
(1.0072 0.00225261 0)
(1.00821 0.00264904 0)
(1.0093 0.00303208 0)
(1.01019 0.00366471 0)
(1.0109 0.00444446 0)
(1.0115 0.00511596 0)
(1.01162 0.00567302 0)
(0.999838 0.000805474 0)
(1.00146 0.000995586 0)
(1.00229 -0.00127146 0)
(1.00178 0.000529055 0)
(1.00296 0.000549238 0)
(1.00352 -0.000239044 0)
(1.0034 0.00102963 0)
(1.00452 0.00110688 0)
(1.00524 0.000672816 0)
(1.00484 0.00135156 0)
(1.0051 0.00170645 0)
(1.00604 0.00147319 0)
(1.00677 0.00166801 0)
(1.00738 0.00226539 0)
(1.00837 0.00270181 0)
(1.0095 0.00305455 0)
(1.01047 0.00358629 0)
(1.01121 0.00428621 0)
(1.01179 0.00492174 0)
(1.01189 0.00543334 0)
(0.99986 0.000672778 0)
(1.00129 0.00100985 0)
(1.00222 -0.00110596 0)
(1.00187 0.00038476 0)
(1.00291 0.000770105 0)
(1.00355 1.66923e-05 0)
(1.00351 0.00103588 0)
(1.00451 0.00126038 0)
(1.00528 0.000839345 0)
(1.00498 0.00138121 0)
(1.00515 0.00180679 0)
(1.00606 0.00163503 0)
(1.00691 0.00173145 0)
(1.00757 0.00226405 0)
(1.00853 0.00272529 0)
(1.00968 0.00306471 0)
(1.01073 0.00350842 0)
(1.01152 0.0041175 0)
(1.01208 0.00470656 0)
(1.01215 0.00517986 0)
(0.99988 0.000557496 0)
(1.00114 0.00100603 0)
(1.00214 -0.000899935 0)
(1.00196 0.000263643 0)
(1.00288 0.000936762 0)
(1.00356 0.00030602 0)
(1.00362 0.00107587 0)
(1.00451 0.0013806 0)
(1.00532 0.00100927 0)
(1.00511 0.00142596 0)
(1.00522 0.00189024 0)
(1.00609 0.00178989 0)
(1.00702 0.00180945 0)
(1.00776 0.00225627 0)
(1.00871 0.00272063 0)
(1.00986 0.00305439 0)
(1.01096 0.00342574 0)
(1.0118 0.0039409 0)
(1.01236 0.00447345 0)
(1.01239 0.00491113 0)
(0.999899 0.000463748 0)
(1.001 0.000985267 0)
(1.00205 -0.000672437 0)
(1.00205 0.000185027 0)
(1.00287 0.00104768 0)
(1.00357 0.000589744 0)
(1.00371 0.00115117 0)
(1.00452 0.00148068 0)
(1.00534 0.00117802 0)
(1.00523 0.00148702 0)
(1.0053 0.00195984 0)
(1.00611 0.00193321 0)
(1.00712 0.00189938 0)
(1.00794 0.00224858 0)
(1.00889 0.00268973 0)
(1.01003 0.00301678 0)
(1.01117 0.00333161 0)
(1.01206 0.00375802 0)
(1.01263 0.00422727 0)
(1.01263 0.00462878 0)
(0.999916 0.000391263 0)
(1.00088 0.000948626 0)
(1.00196 -0.000429586 0)
(1.00214 0.000152796 0)
(1.00289 0.00110754 0)
(1.00357 0.000854975 0)
(1.00378 0.00127029 0)
(1.00453 0.00158786 0)
(1.00536 0.0013404 0)
(1.00534 0.00156243 0)
(1.00538 0.00201771 0)
(1.00613 0.00206308 0)
(1.00719 0.00199926 0)
(1.00809 0.00225001 0)
(1.00906 0.00264052 0)
(1.01019 0.00295143 0)
(1.01136 0.00322058 0)
(1.0123 0.00356727 0)
(1.01288 0.00396936 0)
(1.01286 0.00433206 0)
(0.99993 0.00033535 0)
(1.00077 0.000909863 0)
(1.00186 -0.000182044 0)
(1.00221 0.000170964 0)
(1.00293 0.00113536 0)
(1.00358 0.00109604 0)
(1.00385 0.00141837 0)
(1.00454 0.00170658 0)
(1.00537 0.00149677 0)
(1.00544 0.00164747 0)
(1.00548 0.00206801 0)
(1.00616 0.00217434 0)
(1.00725 0.00210172 0)
(1.00823 0.00226335 0)
(1.00922 0.00258449 0)
(1.01034 0.002866 0)
(1.01152 0.00309206 0)
(1.01251 0.00336542 0)
(1.01311 0.00369682 0)
(1.01307 0.00401571 0)
(0.999943 0.000295875 0)
(1.00068 0.000875919 0)
(1.00176 6.03035e-05 0)
(1.00227 0.000240137 0)
(1.00299 0.0011452 0)
(1.0036 0.00129978 0)
(1.0039 0.001582 0)
(1.00455 0.00183583 0)
(1.00537 0.00165586 0)
(1.00552 0.00174055 0)
(1.00557 0.00211293 0)
(1.00619 0.00225906 0)
(1.00728 0.00219138 0)
(1.00833 0.00228017 0)
(1.00936 0.00252848 0)
(1.01047 0.00277203 0)
(1.01166 0.00295413 0)
(1.01268 0.00315689 0)
(1.01331 0.00341293 0)
(1.01326 0.00368007 0)
(0.999954 0.000272356 0)
(1.00061 0.000840977 0)
(1.00166 0.000295368 0)
(1.00231 0.000362719 0)
(1.00306 0.00116271 0)
(1.00362 0.0014669 0)
(1.00394 0.0017529 0)
(1.00455 0.00198113 0)
(1.00536 0.00182452 0)
(1.00559 0.0018501 0)
(1.00566 0.00216172 0)
(1.00622 0.00232386 0)
(1.0073 0.00226382 0)
(1.0084 0.00229198 0)
(1.00947 0.00246994 0)
(1.01058 0.00267015 0)
(1.01177 0.00280878 0)
(1.01281 0.00294358 0)
(1.01347 0.00312028 0)
(1.01343 0.00332598 0)
(0.999963 0.00026463 0)
(1.00055 0.000808123 0)
(1.00157 0.000512502 0)
(1.00233 0.000528084 0)
(1.00312 0.00120291 0)
(1.00366 0.0016035 0)
(1.00397 0.00192387 0)
(1.00454 0.00213728 0)
(1.00533 0.00200593 0)
(1.00563 0.00197835 0)
(1.00573 0.00222395 0)
(1.00624 0.00237569 0)
(1.0073 0.00232121 0)
(1.00845 0.00229236 0)
(1.00956 0.00240258 0)
(1.01067 0.00255218 0)
(1.01184 0.00265128 0)
(1.01289 0.00272367 0)
(1.01359 0.00282251 0)
(1.01356 0.00295874 0)
(0.99997 0.000267655 0)
(1.00051 0.000787166 0)
(1.0015 0.000703963 0)
(1.00233 0.000720028 0)
(1.00318 0.00128125 0)
(1.00371 0.0017206 0)
(1.00401 0.00209152 0)
(1.00453 0.00229693 0)
(1.00529 0.00219309 0)
(1.00564 0.00212481 0)
(1.00578 0.00230312 0)
(1.00626 0.0024265 0)
(1.00728 0.00236497 0)
(1.00846 0.0022818 0)
(1.00961 0.0023197 0)
(1.01073 0.00241129 0)
(1.01188 0.00247107 0)
(1.01294 0.00249036 0)
(1.01365 0.00251808 0)
(1.01365 0.00258255 0)
(0.999976 0.000274942 0)
(1.00047 0.000789188 0)
(1.00143 0.000870074 0)
(1.00232 0.000931596 0)
(1.00322 0.00139514 0)
(1.00376 0.00184393 0)
(1.00404 0.00224708 0)
(1.00451 0.00246717 0)
(1.00524 0.0023775 0)
(1.00563 0.00228886 0)
(1.00581 0.00239807 0)
(1.00625 0.00249057 0)
(1.00723 0.00240477 0)
(1.00843 0.0022706 0)
(1.00963 0.00222578 0)
(1.01075 0.00225254 0)
(1.01189 0.00226462 0)
(1.01293 0.0022389 0)
(1.01366 0.00220252 0)
(1.01368 0.00219743 0)
(0.999981 0.000288782 0)
(1.00045 0.000809474 0)
(1.00137 0.00102004 0)
(1.0023 0.00115279 0)
(1.00325 0.0015421 0)
(1.00381 0.00198513 0)
(1.00408 0.00240009 0)
(1.00449 0.00264348 0)
(1.00517 0.00257034 0)
(1.0056 0.00246301 0)
(1.00581 0.00251079 0)
(1.00622 0.00256489 0)
(1.00715 0.00245031 0)
(1.00835 0.00226193 0)
(1.00959 0.00213134 0)
(1.01073 0.00208084 0)
(1.01186 0.00203568 0)
(1.01289 0.0019619 0)
(1.01362 0.00186959 0)
(1.01366 0.00179803 0)
(0.999985 0.000309424 0)
(1.00042 0.000842049 0)
(1.00133 0.00116384 0)
(1.00228 0.00137439 0)
(1.00327 0.00172458 0)
(1.00384 0.00214555 0)
(1.0041 0.00256865 0)
(1.00446 0.00282136 0)
(1.00509 0.0027723 0)
(1.00554 0.00264487 0)
(1.00578 0.00263891 0)
(1.00616 0.00264937 0)
(1.00704 0.0025049 0)
(1.00822 0.00225993 0)
(1.00949 0.00204431 0)
(1.01066 0.00190376 0)
(1.01178 0.00178985 0)
(1.01279 0.00166 0)
(1.01351 0.00151442 0)
(1.01356 0.00138165 0)
(0.999988 0.000332075 0)
(1.00041 0.000891862 0)
(1.00129 0.00130281 0)
(1.00225 0.00159615 0)
(1.00327 0.00192867 0)
(1.00387 0.00232708 0)
(1.00412 0.00275601 0)
(1.00442 0.00301805 0)
(1.005 0.00298493 0)
(1.00544 0.00284336 0)
(1.00571 0.00278407 0)
(1.00607 0.00274896 0)
(1.00688 0.00257219 0)
(1.00804 0.00227122 0)
(1.00932 0.00196805 0)
(1.01051 0.0017298 0)
(1.01164 0.00153239 0)
(1.01263 0.00133754 0)
(1.01334 0.00113332 0)
(1.0134 0.000942325 0)
(0.999991 0.000358064 0)
(1.00039 0.000956591 0)
(1.00126 0.00144049 0)
(1.00222 0.00181441 0)
(1.00326 0.00214979 0)
(1.00389 0.00252965 0)
(1.00414 0.00295778 0)
(1.00437 0.00323719 0)
(1.00488 0.0032178 0)
(1.00532 0.00306255 0)
(1.00561 0.0029534 0)
(1.00594 0.00286466 0)
(1.00669 0.00265181 0)
(1.00779 0.00229605 0)
(1.00907 0.00190363 0)
(1.01028 0.00155901 0)
(1.01142 0.0012664 0)
(1.01239 0.000990761 0)
(1.0131 0.000721664 0)
(1.01317 0.00046652 0)
(0.999993 0.000388449 0)
(1.00038 0.00103153 0)
(1.00124 0.00158277 0)
(1.00219 0.00203266 0)
(1.00324 0.00238904 0)
(1.00389 0.00275627 0)
(1.00414 0.0031793 0)
(1.00431 0.00347027 0)
(1.00475 0.00347261 0)
(1.00517 0.00330083 0)
(1.00546 0.00314921 0)
(1.00576 0.00300239 0)
(1.00644 0.00274653 0)
(1.00748 0.00233412 0)
(1.00873 0.00185348 0)
(1.00996 0.00139248 0)
(1.0111 0.000990473 0)
(1.01207 0.000615328 0)
(1.01277 0.000267181 0)
(1.01285 -6.14618e-05 0)
(0.999995 0.000421022 0)
(1.00037 0.00112022 0)
(1.00122 0.00173122 0)
(1.00215 0.00225449 0)
(1.0032 0.0026429 0)
(1.00387 0.00300049 0)
(1.00413 0.00341963 0)
(1.00424 0.00372417 0)
(1.00459 0.00375227 0)
(1.00497 0.00357531 0)
(1.00527 0.00338007 0)
(1.00554 0.00317895 0)
(1.00613 0.0028712 0)
(1.00708 0.00239514 0)
(1.00829 0.00182169 0)
(1.00951 0.00123761 0)
(1.01066 0.000700952 0)