/*--------------------------------*- C++ -*----------------------------------*\
| =========                 |                                                 |
| \\      /  F ield         | OpenFOAM: The Open Source CFD Toolbox           |
|  \\    /   O peration     | Version:  v2012                                 |
|   \\  /    A nd           | Website:  www.openfoam.com                      |
|    \\/     M anipulation  |                                                 |
\*---------------------------------------------------------------------------*/
FoamFile
{
    version     2.0;
    format      ascii;
    class       volScalarField;
    location    "4.25";
    object      p;
}
// * * * * * * * * * * * * * * * * * * * * * * * * * * * * * * * * * * * * * //

dimensions      [0 2 -2 0 0 0 0];


internalField   nonuniform List<scalar> 
17600
(
8.58024e-11
-0.00126007
-0.000966992
-0.00196125
-0.00252955
-0.00376699
-0.00419122
-0.0042926
-0.00517942
-0.00509861
-0.00565372
-0.00570804
-0.00583372
-0.00577226
-0.00567464
-0.00502183
-0.00433594
-0.00277727
-0.000944779
0.00270711
1.70321e-07
-0.00126093
-0.000966423
-0.00196392
-0.00252802
-0.00376997
-0.00418917
-0.00429442
-0.00517691
-0.00510017
-0.00565161
-0.00571174
-0.00583131
-0.00577988
-0.00567114
-0.00504242
-0.00432853
-0.00283828
-0.000932557
0.00240579
-7.72539e-08
-0.00126232
-0.000966604
-0.00196766
-0.00252573
-0.00377449
-0.00418455
-0.00429656
-0.00517247
-0.00510295
-0.0056486
-0.00571772
-0.00582809
-0.00579055
-0.00566726
-0.00506704
-0.00432112
-0.00290516
-0.000935145
0.00199224
-1.1888e-06
-0.00126423
-0.000968046
-0.0019721
-0.00252401
-0.00377953
-0.00417828
-0.00429808
-0.00516729
-0.00510581
-0.00564606
-0.00572425
-0.00582532
-0.00580192
-0.00566427
-0.00509278
-0.00431643
-0.00297176
-0.0009678
0.00158559
-3.27234e-06
-0.0012668
-0.000970449
-0.00197752
-0.00252265
-0.00378478
-0.00417069
-0.00429897
-0.00516151
-0.00510895
-0.00564381
-0.00573146
-0.00582245
-0.00581453
-0.00566107
-0.00512086
-0.00431348
-0.00304178
-0.00103201
0.00120052
-6.27777e-06
-0.00127003
-0.000973409
-0.00198393
-0.00252112
-0.00378989
-0.0041619
-0.00429922
-0.00515522
-0.00511262
-0.00564146
-0.0057395
-0.00581913
-0.00582857
-0.00565748
-0.00515149
-0.00431311
-0.00311646
-0.00112644
0.000839016
-1.00566e-05
-0.00127378
-0.000976573
-0.00199109
-0.00251919
-0.00379455
-0.00415213
-0.00429874
-0.00514859
-0.00511674
-0.00563885
-0.00574834
-0.00581541
-0.00584391
-0.00565407
-0.00518406
-0.00431764
-0.00319514
-0.00124954
0.000496724
-1.43952e-05
-0.00127791
-0.000979712
-0.00199874
-0.00251686
-0.00379864
-0.00414167
-0.00429771
-0.00514175
-0.00512119
-0.00563601
-0.00575793
-0.00581147
-0.00586042
-0.00565164
-0.00521775
-0.00432961
-0.00327635
-0.00140012
0.000167382
-1.90874e-05
-0.00128229
-0.000982762
-0.00200672
-0.00251427
-0.00380223
-0.00413076
-0.00429617
-0.00513481
-0.00512592
-0.00563301
-0.0057682
-0.00580754
-0.00587789
-0.00565099
-0.00525167
-0.00435124
-0.00335925
-0.00157658
-0.000155217
-2.39949e-05
-0.00128688
-0.000985776
-0.00201494
-0.00251155
-0.00380545
-0.00411957
-0.00429414
-0.00512784
-0.00513086
-0.00562996
-0.00577907
-0.00580393
-0.00589593
-0.00565306
-0.00528502
-0.00438419
-0.00344399
-0.00177624
-0.000476446
-2.90556e-05
-0.00129165
-0.00098884
-0.00202332
-0.00250879
-0.00380838
-0.00410822
-0.0042916
-0.00512093
-0.00513593
-0.00562695
-0.00579034
-0.00580102
-0.00591402
-0.00565885
-0.00531726
-0.00442958
-0.00353188
-0.00199525
-0.000800394
-3.42539e-05
-0.00129661
-0.000992016
-0.00203183
-0.00250605
-0.00381102
-0.00409678
-0.00428844
-0.00511417
-0.00514101
-0.00562415
-0.00580178
-0.00579927
-0.00593159
-0.00566934
-0.00534822
-0.00448778
-0.00362538
-0.00222918
-0.00112958
-3.95882e-05
-0.00130175
-0.000995338
-0.00204038
-0.00250343
-0.00381335
-0.00408534
-0.00428453
-0.0051077
-0.0051459
-0.00562179
-0.00581303
-0.00579917
-0.0059482
-0.00568528
-0.00537838
-0.00455829
-0.00372763
-0.00247385
-0.00146498
-4.50549e-05
-0.00130707
-0.000998814
-0.00204892
-0.00250102
-0.00381527
-0.00407404
-0.00427972
-0.0051017
-0.00515041
-0.00562013
-0.00582377
-0.00580124
-0.00596357
-0.0057071
-0.00540907
-0.00463981
-0.00384158
-0.00272616
-0.0018064
-5.06454e-05
-0.00131256
-0.00100245
-0.00205734
-0.00249893
-0.00381665
-0.00406303
-0.00427381
-0.0050964
-0.00515428
-0.00561945
-0.00583372
-0.00580587
-0.00597771
-0.00573474
-0.0054423
-0.00473069
-0.00396932
-0.00298442
-0.00215287
-5.63486e-05
-0.0013182
-0.00100625
-0.00206557
-0.00249729
-0.00381734
-0.00405255
-0.00426657
-0.00509205
-0.00515725
-0.00562001
-0.00584269
-0.00581324
-0.00599104
-0.00576769
-0.00548039
-0.00482978
-0.00411207
-0.00324796
-0.00250308
-6.21539e-05
-0.00132396
-0.00101024
-0.00207349
-0.00249625
-0.00381716
-0.00404285
-0.00425773
-0.00508895
-0.00515907
-0.00562199
-0.00585065
-0.00582327
-0.00600454
-0.00580499
-0.00552537
-0.00493686
-0.00426997
-0.00351663
-0.00285585
-6.80528e-05
-0.00132981
-0.00101445
-0.00208098
-0.00249598
-0.0038159
-0.00403423
-0.00424724
-0.00508735
-0.00515955
-0.00562544
-0.00585785
-0.00583548
-0.00601966
-0.00584569
-0.00557852
-0.00505251
-0.00444212
-0.00379041
-0.00321026
-7.4042e-05
-0.00133572
-0.00101895
-0.00208788
-0.00249667
-0.00381332
-0.00402701
-0.00423422
-0.0050875
-0.00515868
-0.00563017
-0.00586488
-0.00584898
-0.00603808
-0.00588949
-0.00564051
-0.00517782
-0.00462727
-0.00406873
-0.00356526
-8.01257e-05
-0.00134162
-0.00102378
-0.00209403
-0.00249854
-0.00380912
-0.00402157
-0.00421871
-0.00508952
-0.00515663
-0.00563571
-0.00587265
-0.00586249
-0.00606104
-0.00593712
-0.00571151
-0.00531432
-0.00482491
-0.00435059
-0.00391956
-8.63162e-05
-0.00134742
-0.00102905
-0.0020992
-0.00250189
-0.003803
-0.00401817
-0.00420058
-0.00509341
-0.00515381
-0.00564121
-0.00588243
-0.0058749
-0.00608885
-0.0059901
-0.00579127
-0.00546335
-0.00503596
-0.00463536
-0.00427158
-9.26369e-05
-0.001353
-0.00103488
-0.00210312
-0.00250699
-0.00379476
-0.00401707
-0.00417986
-0.00509916
-0.00515084
-0.00564541
-0.0058955
-0.00588582
-0.00612111
-0.00605051
-0.00587969
-0.00562543
-0.0052623
-0.00492367
-0.0046197
-9.91318e-05
-0.00135817
-0.00104141
-0.00210556
-0.00251413
-0.00378415
-0.00401848
-0.00415682
-0.00510643
-0.00514856
-0.00564682
-0.00591269
-0.00589578
-0.0061567
-0.00612024
-0.00597724
-0.00580034
-0.00550581
-0.0052176
-0.00496313
-0.000105888
-0.00136269
-0.00104882
-0.00210622
-0.0025236
-0.00377101
-0.00402251
-0.00413183
-0.00511291
-0.00514819
-0.00564416
-0.00593421
-0.00590604
-0.00619404
-0.00620028
-0.00608466
-0.00598754
-0.00576839
-0.00552099
-0.005303
-0.000113008
-0.00136626
-0.0010573
-0.0021049
-0.00253562
-0.00375537
-0.004029
-0.00410536
-0.005118
-0.00515141
-0.00563647
-0.00595968
-0.00591816
-0.0062318
-0.00629107
-0.00620241
-0.00618573
-0.00605127
-0.00584118
-0.00564369
-0.000120628
-0.00136852
-0.00106695
-0.00210146
-0.0025503
-0.00373748
-0.00403749
-0.00407845
-0.00511999
-0.00515934
-0.00562359
-0.00598831
-0.00593364
-0.00626855
-0.00639226
-0.00632956
-0.00638633
-0.00635349
-0.00619405
-0.00599441
-0.000128963
-0.00136906
-0.00107791
-0.00209573
-0.00256771
-0.00371778
-0.0040474
-0.00405233
-0.0051178
-0.00517213
-0.00560635
-0.00601879
-0.00595436
-0.00630275
-0.00650209
-0.00646713
-0.006587
-0.00666183
-0.00656155
-0.00638802
-0.000138228
-0.00136747
-0.00109023
-0.0020877
-0.00258762
-0.00369706
-0.00405798
-0.00402796
-0.00511088
-0.0051897
-0.00558579
-0.00604966
-0.00598296
-0.00633511
-0.00661896
-0.00662666
-0.00679665
-0.00697495
-0.00694722
-0.00679094
-0.000148688
-0.00136334
-0.00110386
-0.00207762
-0.00260945
-0.00367631
-0.00406724
-0.00400602
-0.00509904
-0.00521223
-0.00556298
-0.00607876
-0.00602364
-0.00637237
-0.00674627
-0.00680751
-0.00701483
-0.00728948
-0.00734534
-0.00720028
-0.00016058
-0.00135629
-0.00111862
-0.00206585
-0.00263257
-0.00365631
-0.00407529
-0.00398709
-0.00508238
-0.00523997
-0.00554065
-0.00610675
-0.00608022
-0.00641655
-0.00687865
-0.00700717
-0.00724302
-0.00760087
-0.00774645
-0.00761547
-0.000174118
-0.00134605
-0.00113396
-0.00205301
-0.00265624
-0.0036375
-0.00408211
-0.00397176
-0.00506128
-0.00527331
-0.00552403
-0.00613495
-0.00615226
-0.00646759
-0.00700855
-0.007221
-0.00748364
-0.00790809
-0.008144
-0.00803372
-0.000189545
-0.00133244
-0.00114905
-0.00203982
-0.00267995
-0.0036203
-0.00408809
-0.00396083
-0.00503661
-0.00531315
-0.00551593
-0.00616109
-0.00623713
-0.00652754
-0.00713194
-0.00744292
-0.00773799
-0.00821346
-0.00853396
-0.00845171
-0.000206933
-0.0013156
-0.00116279
-0.00202659
-0.00270352
-0.00360511
-0.00409426
-0.00395563
-0.00501018
-0.00535967
-0.00551659
-0.00618112
-0.00633116
-0.00659924
-0.00724896
-0.00766709
-0.00800541
-0.00851968
-0.00891395
-0.00886625
-0.000226305
-0.00129598
-0.00117386
-0.00201333
-0.00272689
-0.00359213
-0.00410167
-0.00395907
-0.00498422
-0.00541052
-0.00552581
-0.00619248
-0.00642952
-0.00668554
-0.00736253
-0.00788898
-0.0082835
-0.00882842
-0.0092838
-0.00927449
-0.000247521
-0.00127428
-0.00118132
-0.00199923
-0.00275027
-0.00358207
-0.00411124
-0.00397382
-0.00495941
-0.00546117
-0.00554436
-0.00619618
-0.00652726
-0.00678818
-0.00747724
-0.0081059
-0.00856903
-0.00914064
-0.00964399
-0.00967355
-0.000270163
-0.00125161
-0.00118467
-0.00198302
-0.00277539
-0.00357632
-0.00412476
-0.00400048
-0.00493431
-0.00550768
-0.00557298
-0.00619545
-0.00662037
-0.00690645
-0.00759789
-0.00831711
-0.00885881
-0.00945648
-0.00999468
-0.0100602
-0.000293863
-0.00122891
-0.0011838
-0.00196403
-0.00280236
-0.00357698
-0.00414236
-0.00403698
-0.00490871
-0.00554783
-0.00561203
-0.00619457
-0.00670637
-0.00703744
-0.00772806
-0.00852326
-0.00914977
-0.00977487
-0.0103356
-0.0104311
-0.000318069
-0.0012071
-0.0011796
-0.00194162
-0.00283171
-0.00358513
-0.00416182
-0.00408169
-0.00488435
-0.00558006
-0.00566116
-0.00619826
-0.00678455
-0.00717737
-0.00786946
-0.00872577
-0.00943844
-0.0100941
-0.0106669
-0.0107844
-0.000341895
-0.00118719
-0.00117399
-0.00191504
-0.00286266
-0.00360152
-0.00418168
-0.00413319
-0.00486414
-0.00560357
-0.00571874
-0.00621064
-0.00685552
-0.00732156
-0.00802185
-0.00892621
-0.00972169
-0.0104125
-0.0109903
-0.0111201
-0.000364476
-0.00116971
-0.00116949
-0.00188436
-0.002893
-0.00362662
-0.00420188
-0.00418979
-0.00485092
-0.00561866
-0.00578194
-0.00623457
-0.00692107
-0.00746525
-0.008183
-0.0091253
-0.00999739
-0.0107287
-0.0113075
-0.0114392
-0.000385119
-0.00115488
-0.00116836
-0.00185027
-0.00292092
-0.00366098
-0.00422292
-0.00424933
-0.00484674
-0.00562663
-0.00584676
-0.00627112
-0.00698436
-0.00760514
-0.00834962
-0.00932282
-0.0102644
-0.0110413
-0.0116203
-0.0117436
-0.000403256
-0.00114264
-0.00117249
-0.00181433
-0.00294559
-0.00370497
-0.00424479
-0.00430919
-0.00485273
-0.00563021
-0.00590941
-0.00631917
-0.00704877
-0.00774028
-0.00851848
-0.00951796
-0.0105218
-0.0113483
-0.0119295
-0.0120356
-0.000418497
-0.00113216
-0.00118306
-0.00177974
-0.00296724
-0.00375626
-0.004267
-0.00436646
-0.00486861
-0.00563266
-0.00596778
-0.0063759
-0.00711698
-0.00787197
-0.00868754
-0.00970955
-0.0107675
-0.0116463
-0.0122344
-0.0123176
-0.000430519
-0.00112184
-0.00120056
-0.00175214
-0.00298721
-0.00381358
-0.00429005
-0.00441811
-0.0048925
-0.00563694
-0.00602108
-0.00643768
-0.0071892
-0.00800185
-0.00885639
-0.00989666
-0.0109993
-0.0119313
-0.0125334
-0.0125924
-0.000439125
-0.00110913
-0.00122535
-0.00173692
-0.00300678
-0.00387429
-0.00431351
-0.00446144
-0.00492177
-0.00564561
-0.00606956
-0.00650075
-0.00726339
-0.00813022
-0.00902538
-0.0100791
-0.0112152
-0.0121983
-0.0128226
-0.0128611
-0.000443618
-0.00109214
-0.00126142
-0.00174603
-0.00302601
-0.00393567
-0.00433724
-0.00449571
-0.00495299
-0.00566054
-0.0061152
-0.00656242
-0.00733716
-0.00825585
-0.00919393
-0.0102578
-0.0114154
-0.0124436
-0.013097
-0.0131229
-0.000443677
-0.00107277
-0.00131549
-0.00176598
-0.00304069
-0.00399667
-0.00436657
-0.00452217
-0.00498279
-0.0056825
-0.00616105
-0.00662202
-0.00740798
-0.00837593
-0.00935998
-0.0104334
-0.0116012
-0.0126649
-0.0133511
-0.0133744
-0.000448191
-0.00105541
-0.0013657
-0.00179328
-0.00305309
-0.00406108
-0.00440893
-0.0045445
-0.00500799
-0.00570936
-0.00620918
-0.00668017
-0.00747366
-0.008487
-0.00952118
-0.010607
-0.0117756
-0.0128623
-0.0135804
-0.0136109
-0.000457819
-0.00104867
-0.00140315
-0.00182763
-0.00306419
-0.00412767
-0.0044652
-0.0045667
-0.00502521
-0.00573714
-0.00626074
-0.00673789
-0.00753197
-0.00858513
-0.00967375
-0.0107779
-0.0119412
-0.0130374
-0.0137819
-0.0138265
-0.000462113
-0.00103291
-0.0014779
-0.00187689
-0.00306671
-0.00418653
-0.00453371
-0.00459332
-0.00503308
-0.00576132
-0.00631581
-0.00679657
-0.00758138
-0.0086656
-0.00981171
-0.0109425
-0.0120987
-0.013192
-0.0139535
-0.0140148
-0.000470338
-0.00102852
-0.00154708
-0.00193861
-0.00306797
-0.00423786
-0.0046136
-0.00462898
-0.00503295
-0.00577661
-0.00637078
-0.00685704
-0.00762354
-0.00872643
-0.00992896
-0.0110969
-0.0122496
-0.0133306
-0.0140973
-0.0141729
-0.000490397
-0.00102143
-0.00161053
-0.00201236
-0.00307449
-0.00428066
-0.00470091
-0.00467706
-0.00502813
-0.00577925
-0.00642062
-0.00691988
-0.00766192
-0.00876779
-0.0100193
-0.011234
-0.0123923
-0.0134568
-0.014217
-0.0143004
-0.000520061
-0.00102379
-0.00166889
-0.00209756
-0.00308862
-0.00431321
-0.00479157
-0.00473986
-0.00502318
-0.00576613
-0.00645856
-0.00698308
-0.00769901
-0.00879026
-0.0100775
-0.0113431
-0.01252
-0.0135716
-0.0143165
-0.0143991
-0.000555841
-0.00103288
-0.00173126
-0.00219526
-0.00311261
-0.00433497
-0.00488072
-0.00481802
-0.00502291
-0.00573624
-0.00647721
-0.00704142
-0.00773634
-0.00879684
-0.010101
-0.0114149
-0.0126233
-0.0136714
-0.0143983
-0.0144718
-0.000598337
-0.00104987
-0.00180116
-0.00230568
-0.00314943
-0.00434717
-0.00496218
-0.0049092
-0.00503187
-0.00569202
-0.00647099
-0.00708662
-0.00777138
-0.00879063
-0.0100903
-0.0114432
-0.0126908
-0.0137474
-0.0144605
-0.0145209
-0.000654581
-0.00107862
-0.00186582
-0.00242737
-0.00320408
-0.00435435
-0.00503099
-0.0050079
-0.00505304
-0.00563776
-0.00643585
-0.00710807
-0.00779593
-0.00877192
-0.0100486
-0.0114256
-0.0127127
-0.0137881
-0.0144982
-0.0145468
-0.000723978
-0.00111826
-0.00193282
-0.00255718
-0.00327803
-0.00436076
-0.00508452
-0.00510789
-0.00508923
-0.00558083
-0.0063721
-0.00709706
-0.00780105
-0.00873904
-0.00997924
-0.0113617
-0.0126817
-0.0137842
-0.014501
-0.0145446
-0.000808212
-0.00116996
-0.0020041
-0.00269145
-0.00337165
-0.00437273
-0.00512369
-0.00520369
-0.00513895
-0.0055269
-0.00628192
-0.00704562
-0.00777564
-0.00868515
-0.00988091
-0.0112505
-0.0125926
-0.0137251
-0.0144584
-0.0145063
-0.000909766
-0.00124829
-0.00207239
-0.00282971
-0.003485
-0.00439581
-0.00515018
-0.0052888
-0.00519626
-0.00547749
-0.00616857
-0.00694908
-0.007708
-0.00859924
-0.00974791
-0.0110898
-0.0124411
-0.0136022
-0.01436
-0.014422
-0.0010228
-0.00133446
-0.00216663
-0.00297247
-0.00361565
-0.00443431
-0.00516748
-0.00535901
-0.00525557
-0.00543425
-0.00603706
-0.00680744
-0.00758874
-0.00846874
-0.00957144
-0.0108748
-0.012222
-0.0134071
-0.0141963
-0.0142838
-0.00115468
-0.00145067
-0.00226756
-0.00311702
-0.00376289
-0.00449251
-0.00518112
-0.00541276
-0.00531036
-0.00539487
-0.00589082
-0.00662132
-0.0074086
-0.00827847
-0.00933786
-0.0105951
-0.0119255
-0.0131279
-0.0139539
-0.0140805
-0.00131257
-0.00158868
-0.00238309
-0.00326499
-0.00392406
-0.00457302
-0.00519811
-0.0054507
-0.00535557
-0.00535556
-0.00573144
-0.00639116
-0.00715916
-0.00801233
-0.00902853
-0.0102339
-0.0115364
-0.0127471
-0.0136069
-0.0137804
-0.00149565
-0.00175718
-0.00251384
-0.00341819
-0.00409489
-0.00467785
-0.00522856
-0.005479
-0.00538941
-0.00531368
-0.00556
-0.00611725
-0.00683322
-0.00765279
-0.00861931
-0.00976618
-0.011029
-0.0122354
-0.0131273
-0.0133576
-0.00170166
-0.00194489
-0.00267744
-0.00358271
-0.00427362
-0.00480822
-0.0052807
-0.00550632
-0.00541448
-0.0052696
-0.00537897
-0.00580169
-0.00642688
-0.00718128
-0.00807916
-0.00915393
-0.0103634
-0.0115562
-0.0124801
-0.0127811
-0.00193439
-0.00216075
-0.0028656
-0.00375773
-0.00445844
-0.0049634
-0.00535814
-0.00553929
-0.00543936
-0.00523448
-0.00520011
-0.00545375
-0.00593747
-0.00657973
-0.00737374
-0.00834835
-0.00948547
-0.0106559
-0.0116188
-0.0120152
-0.0022213
-0.00241039
-0.00306603
-0.00391196
-0.0046436
-0.00514194
-0.00546255
-0.00558344
-0.0054677
-0.0052199
-0.00504119
-0.00508471
-0.00535849
-0.00581434
-0.00644875
-0.00727507
-0.0083029
-0.00943869
-0.0104599
-0.0110007
-0.00256676
-0.00281578
-0.003282
-0.00403458
-0.00483211
-0.00533196
-0.00558394
-0.00564127
-0.00550133
-0.00523041
-0.00494033
-0.00473437
-0.00470157
-0.00484601
-0.00518991
-0.00577892
-0.00661401
-0.00767601
-0.00879237
-0.00958651
-0.00287136
-0.00304122
-0.0036293
-0.00439375
-0.00509196
-0.00552285
-0.00570934
-0.0057147
-0.00554361
-0.0052674
-0.00494612
-0.0045747
-0.00412944
-0.00369248
-0.0034333
-0.00349465
-0.00393463
-0.00469757
-0.0056704
-0.00664417
-0.00323988
-0.00341292
-0.00400499
-0.00473913
-0.0053543
-0.00570602
-0.00583013
-0.00580552
-0.00560856
-0.00525831
-0.00496332
-0.00476792
-0.00419283
-0.00315489
-0.00220922
-0.00166659
-0.00144289
-0.00129592
-0.00107636
-0.000845976
-0.00371823
-0.00388266
-0.00439558
-0.00506289
-0.0055901
-0.0058664
-0.00593024
-0.00588448
-0.00575272
-0.00518852
-0.0040797
-0.00295639
-0.00205545
-0.00137992
-0.000809234
-0.00020825
0.00048898
0.00124449
0.00189892
0.00209531
-0.00425646
-0.00439323
-0.00484969
-0.00539861
-0.00579171
-0.00596269
-0.00597981
-0.00556669
-0.00474162
-0.00384835
-0.00303185
-0.00233547
-0.00172307
-0.00105346
-0.000236975
0.000726807
0.00176669
0.00274346
0.00343671
0.00350087
-0.00490966
-0.00496565
-0.00530813
-0.00570943
-0.0059427
-0.00569814
-0.00518206
-0.00461104
-0.00405639
-0.00351322
-0.00293176
-0.00224686
-0.00142703
-0.000467917
0.000605347
0.00175888
0.00292072
0.00395305
0.00461726
0.004573
-0.00574339
-0.00582923
-0.00568105
-0.00550416
-0.00531798
-0.00504268
-0.00469256
-0.00432571
-0.0039079
-0.00338076
-0.00270326
-0.00185824
-0.000868029
0.00022676
0.00140552
0.00263012
0.00382211
0.00483574
0.0054455
0.00531922
-0.00645585
-0.00640739
-0.00595696
-0.00541475
-0.00498722
-0.00468927
-0.00441779
-0.00409499
-0.00366119
-0.00307365
-0.0023142
-0.00139359
-0.00033854
0.000821695
0.00205172
0.00330104
0.00448701
0.00547082
0.00603223
0.00584276
-0.00700134
-0.00684152
-0.00624846
-0.00550521
-0.00487675
-0.00444276
-0.00411632
-0.00376488
-0.00330382
-0.00269215
-0.00191429
-0.000973508
0.000109344
0.00130123
0.00255875
0.00382291
0.00500533
0.00596603
0.00648734
0.00624533
-0.00746337
-0.0072246
-0.00652246
-0.00562516
-0.00481938
-0.0042324
-0.00380958
-0.00341947
-0.00295255
-0.00234295
-0.0015638
-0.000616822
0.000479528
0.0016904
0.00296643
0.00424091
0.00541951
0.00636039
0.00684791
0.00656254
-0.00785718
-0.00756241
-0.006748
-0.00572679
-0.00478241
-0.00406487
-0.0035524
-0.0031211
-0.00264492
-0.00203834
-0.00126233
-0.000311922
0.000793431
0.00201561
0.00330136
0.00457947
0.00575188
0.00667533
0.00713545
0.00681593
-0.00817052
-0.00782294
-0.00693883
-0.00582028
-0.00476728
-0.00394654
-0.00335606
-0.00288134
-0.0023876
-0.00177858
-0.00100496
-5.63294e-05
0.00105046
0.00227661
0.00356504
0.00484212
0.00600763
0.00691718
0.00735688
0.00701242
-0.00840429
-0.00802636
-0.0070885
-0.00590392
-0.00477748
-0.00388365
-0.0032302
-0.00270958
-0.00218722
-0.00155994
-0.000775053
0.000178588
0.00128412
0.00250477
0.00378808
0.00505879
0.00621542
0.00711291
0.0075373
0.0071749
-0.00855005
-0.008163
-0.00720109
-0.00598331
-0.00481919
-0.00388572
-0.00319396
-0.00263918
-0.00209005
-0.00144245
-0.000638642
0.000334283
0.00145679
0.00268781
0.00397113
0.00523541
0.00638273
0.00727081
0.00768727
0.00731854
0.00670584
0.00184914
-0.00547195
-0.0106439
-0.0117125
-0.01047
-0.0089903
-0.00796969
-0.0073856
-0.00707656
-0.0069299
-0.00688593
-0.00690446
-0.00695484
-0.00702018
-0.00709396
-0.00717306
-0.00725575
-0.00734055
-0.00742458
-0.00750573
-0.00758584
-0.00766869
-0.00775566
-0.00784537
-0.00793654
-0.00802905
-0.00812274
-0.00821695
-0.00831092
-0.00840441
-0.00849752
-0.00858988
-0.00868054
-0.00876896
-0.00885559
-0.00894126
-0.00902627
-0.0091101
-0.00919213
-0.0092722
-0.00935056
-0.00942752
-0.00950322
-0.00957734
-0.00964963
-0.00972002
-0.00978899
-0.00985675
-0.00992333
-0.00998854
-0.0100524
-0.010115
-0.0101768
-0.010238
-0.0102983
-0.0103576
-0.0104157
-0.0104728
-0.0105291
-0.0105849
-0.01064
-0.0106941
-0.0107471
-0.0107997
-0.0108519
-0.0109038
-0.0109552
-0.0110063
-0.0110572
-0.0111082
-0.0111591
-0.01121
-0.0112606
-0.0113112
-0.0113619
-0.0114126
-0.0114633
-0.0115137
-0.0115641
-0.0116146
-0.0116651
-0.0117155
-0.0117657
-0.0118157
-0.0118657
-0.0119157
-0.0119656
-0.0120152
-0.0120649
-0.0121144
-0.012164
-0.0122131
-0.0122621
-0.012311
-0.01236
-0.0124087
-0.0124572
-0.0125055
-0.0125538
-0.0126021
-0.0126504
-0.0126987
-0.0127469
-0.0127954
-0.0128437
-0.0128924
-0.012941
-0.01299
-0.0130389
-0.0130879
-0.0131367
-0.0131857
-0.0132345
-0.0132833
-0.0133321
-0.0133807
-0.0134295
-0.0134781
-0.013527
-0.0135755
-0.0136243
-0.0136727
-0.0137212
-0.0137695
-0.0138179
-0.0138664
-0.0139145
-0.0139628
-0.0140108
-0.0140593
-0.0141074
-0.014156
-0.0142039
-0.0142524
-0.0143004
-0.0143488
-0.0143971
-0.0144451
-0.0144934
-0.0145412
-0.0145896
-0.0146373
-0.0146858
-0.0147333
-0.0147816
-0.0148295
-0.0148778
-0.014926
-0.0149735
-0.0150219
-0.0150694
-0.0151182
-0.0151653
-0.0152134
-0.0152609
-0.0153091
-0.0153569
-0.0154041
-0.0154524
-0.0154994
-0.015548
-0.0155945
-0.0156426
-0.0156897
-0.0157376
-0.0157856
-0.0158322
-0.0158808
-0.0159272
-0.0159759
-0.016022
-0.0160698
-0.016117
-0.0161635
-0.0162118
-0.016257
-0.0163062
-0.0163516
-0.0163999
-0.0164462
-0.0164927
-0.016541
-0.0165858
-0.0166346
-0.0166791
-0.0167266
-0.0167725
-0.0168164
-0.0168645
-0.016905
-0.0169532
-0.0169924
-0.0170363
-0.0170765
-0.0171126
-0.0171487
-0.0171778
-0.0171961
-0.0172254
0.0059785
0.00166915
-0.00539377
-0.0105086
-0.0116324
-0.0104317
-0.00896613
-0.00795269
-0.00737346
-0.00706745
-0.00692262
-0.00687984
-0.0068992
-0.0069502
-0.007016
-0.00709014
-0.00716955
-0.0072525
-0.00733753
-0.00742178
-0.00750313
-0.00758341
-0.00766641
-0.00775353
-0.00784338
-0.00793467
-0.00802729
-0.0081211
-0.00821541
-0.00830947
-0.00840303
-0.00849623
-0.00858865
-0.00867938
-0.00876785
-0.00885454
-0.00894026
-0.00902531
-0.00910918
-0.00919125
-0.00927136
-0.00934976
-0.00942675
-0.00950248
-0.00957663
-0.00964895
-0.00971937
-0.00978836
-0.00985614
-0.00992274
-0.00998797
-0.0100518
-0.0101145
-0.0101763
-0.0102375
-0.0102979
-0.0103572
-0.0104153
-0.0104724
-0.0105287
-0.0105845
-0.0106396
-0.0106937
-0.0107468
-0.0107993
-0.0108515
-0.0109035
-0.0109549
-0.011006
-0.0110569
-0.0111079
-0.0111588
-0.0112097
-0.0112603
-0.011311
-0.0113616
-0.0114124
-0.011463
-0.0115135
-0.0115639
-0.0116144
-0.0116649
-0.0117153
-0.0117655
-0.0118155
-0.0118655
-0.0119155
-0.0119654
-0.0120151
-0.0120647
-0.0121143
-0.0121638
-0.0122129
-0.012262
-0.0123109
-0.0123598
-0.0124086
-0.0124571
-0.0125054
-0.0125536
-0.012602
-0.0126502
-0.0126985
-0.0127467
-0.0127952
-0.0128436
-0.0128923
-0.0129409
-0.0129899
-0.0130387
-0.0130878
-0.0131366
-0.0131855
-0.0132344
-0.0132832
-0.013332
-0.0133806
-0.0134294
-0.013478
-0.0135269
-0.0135754
-0.0136242
-0.0136726
-0.0137211
-0.0137694
-0.0138179
-0.0138663
-0.0139144
-0.0139628
-0.0140108
-0.0140593
-0.0141073
-0.0141559
-0.0142038
-0.0142523
-0.0143004
-0.0143488
-0.014397
-0.0144451
-0.0144933
-0.0145411
-0.0145896
-0.0146372
-0.0146857
-0.0147333
-0.0147815
-0.0148294
-0.0148777
-0.014926
-0.0149735
-0.0150218
-0.0150694
-0.0151181
-0.0151652
-0.0152134
-0.0152609
-0.015309
-0.0153569
-0.0154041
-0.0154523
-0.0154993
-0.0155479
-0.0155945
-0.0156426
-0.0156897
-0.0157376
-0.0157855
-0.0158322
-0.0158808
-0.0159272
-0.0159759
-0.016022
-0.0160698
-0.016117
-0.0161635
-0.0162117
-0.016257
-0.0163062
-0.0163516
-0.0163999
-0.0164462
-0.0164927
-0.016541
-0.0165857
-0.0166346
-0.016679
-0.0167266
-0.0167725
-0.0168163
-0.0168644
-0.016905
-0.0169532
-0.0169924
-0.0170363
-0.0170765
-0.0171126
-0.0171487
-0.0171778
-0.017196
-0.0172254
0.00521176
0.00148704
-0.00522215
-0.0102535
-0.011488
-0.0103748
-0.0089348
-0.00792835
-0.00735441
-0.00705305
-0.00691171
-0.00687137
-0.0068924
-0.00694455
-0.00701119
-0.00708594
-0.0071658
-0.00724908
-0.00733438
-0.00741887
-0.00750043
-0.00758089
-0.00766406
-0.00775134
-0.00784134
-0.00793275
-0.0080255
-0.00811942
-0.00821385
-0.00830799
-0.00840165
-0.00849492
-0.00858743
-0.00867822
-0.00876675
-0.0088535
-0.00893927
-0.00902437
-0.00910828
-0.00919039
-0.00927054
-0.00934897
-0.00942599
-0.00950176
-0.00957594
-0.00964828
-0.00971872
-0.00978775
-0.00985555
-0.00992217
-0.00998743
-0.0100513
-0.010114
-0.0101758
-0.010237
-0.0102974
-0.0103567
-0.0104149
-0.010472
-0.0105283
-0.0105841
-0.0106392
-0.0106933
-0.0107464
-0.010799
-0.0108512
-0.0109032
-0.0109546
-0.0110057
-0.0110566
-0.0111076
-0.0111586
-0.0112094
-0.01126
-0.0113107
-0.0113614
-0.0114122
-0.0114628
-0.0115133
-0.0115637
-0.0116141
-0.0116647
-0.0117151
-0.0117653
-0.0118153
-0.0118653
-0.0119153
-0.0119652
-0.0120149
-0.0120646
-0.0121141
-0.0121636
-0.0122128
-0.0122618
-0.0123107
-0.0123597
-0.0124084
-0.0124569
-0.0125052
-0.0125535
-0.0126019
-0.0126501
-0.0126984
-0.0127466
-0.0127951
-0.0128435
-0.0128922
-0.0129408
-0.0129898
-0.0130386
-0.0130876
-0.0131365
-0.0131854
-0.0132343
-0.0132831
-0.013332
-0.0133805
-0.0134293
-0.0134779
-0.0135268
-0.0135753
-0.0136241
-0.0136725
-0.013721
-0.0137693
-0.0138178
-0.0138662
-0.0139144
-0.0139627
-0.0140107
-0.0140592
-0.0141072
-0.0141558
-0.0142038
-0.0142522
-0.0143003
-0.0143487
-0.014397
-0.014445
-0.0144933
-0.014541
-0.0145895
-0.0146372
-0.0146856
-0.0147332
-0.0147815
-0.0148294
-0.0148777
-0.0149259
-0.0149734
-0.0150218
-0.0150693
-0.0151181
-0.0151652
-0.0152133
-0.0152608
-0.015309
-0.0153568
-0.0154041
-0.0154523
-0.0154993
-0.0155479
-0.0155944
-0.0156425
-0.0156897
-0.0157376
-0.0157855
-0.0158322
-0.0158807
-0.0159271
-0.0159759
-0.016022
-0.0160697
-0.016117
-0.0161635
-0.0162117
-0.016257
-0.0163062
-0.0163515
-0.0163999
-0.0164461
-0.0164927
-0.016541
-0.0165857
-0.0166345
-0.016679
-0.0167265
-0.0167724
-0.0168163
-0.0168644
-0.016905
-0.0169531
-0.0169924
-0.0170363
-0.0170765
-0.0171125
-0.0171486
-0.0171778
-0.017196
-0.0172253
0.00448454
0.00132616
-0.00498233
-0.0099158
-0.011287
-0.0102938
-0.0088901
-0.00789142
-0.00732414
-0.0070301
-0.0068948
-0.00685871
-0.00688259
-0.00693671
-0.00700477
-0.00708059
-0.00716121
-0.00724501
-0.00733068
-0.00741546
-0.0074973
-0.00757799
-0.00766138
-0.00774885
-0.00783901
-0.00793057
-0.00802344
-0.00811751
-0.00821207
-0.00830634
-0.0084001
-0.00849348
-0.00858608
-0.00867695
-0.00876555
-0.00885238
-0.00893822
-0.00902337
-0.00910732
-0.00918948
-0.00926967
-0.00934814
-0.0094252
-0.009501
-0.00957521
-0.00964759
-0.00971806
-0.00978711
-0.00985494
-0.00992158
-0.00998686
-0.0100507
-0.0101134
-0.0101753
-0.0102365
-0.0102969
-0.0103563
-0.0104144
-0.0104715
-0.0105279
-0.0105837
-0.0106388
-0.010693
-0.0107461
-0.0107986
-0.0108509
-0.0109028
-0.0109543
-0.0110054
-0.0110563
-0.0111073
-0.0111583
-0.0112091
-0.0112598
-0.0113105
-0.0113611
-0.0114119
-0.0114625
-0.011513
-0.0115634
-0.0116139
-0.0116645
-0.0117149
-0.0117651
-0.0118151
-0.0118651
-0.0119151
-0.011965
-0.0120147
-0.0120644
-0.0121139
-0.0121635
-0.0122126
-0.0122617
-0.0123106
-0.0123595
-0.0124083
-0.0124568
-0.0125051
-0.0125534
-0.0126017
-0.01265
-0.0126983
-0.0127465
-0.012795
-0.0128434
-0.0128921
-0.0129407
-0.0129897
-0.0130385
-0.0130875
-0.0131364
-0.0131853
-0.0132342
-0.013283
-0.0133319
-0.0133804
-0.0134293
-0.0134778
-0.0135267
-0.0135752
-0.0136241
-0.0136724
-0.0137209
-0.0137692
-0.0138177
-0.0138661
-0.0139143
-0.0139626
-0.0140106
-0.0140591
-0.0141072
-0.0141557
-0.0142037
-0.0142522
-0.0143003
-0.0143486
-0.0143969
-0.014445
-0.0144932
-0.014541
-0.0145894
-0.0146371
-0.0146856
-0.0147332
-0.0147814
-0.0148293
-0.0148776
-0.0149259
-0.0149734
-0.0150217
-0.0150693
-0.015118
-0.0151651
-0.0152133
-0.0152608
-0.0153089
-0.0153568
-0.015404
-0.0154523
-0.0154992
-0.0155478
-0.0155944
-0.0156425
-0.0156896
-0.0157375
-0.0157855
-0.0158321
-0.0158807
-0.0159271
-0.0159758
-0.0160219
-0.0160697
-0.0161169
-0.0161634
-0.0162117
-0.0162569
-0.0163061
-0.0163515
-0.0163998
-0.0164461
-0.0164926
-0.0165409
-0.0165857
-0.0166345
-0.016679
-0.0167265
-0.0167724
-0.0168163
-0.0168644
-0.0169049
-0.0169531
-0.0169923
-0.0170362
-0.0170765
-0.0171125
-0.0171486
-0.0171778
-0.017196
-0.0172253
0.00378832
0.00115634
-0.00472354
-0.00954796
-0.0110605
-0.0102014
-0.00883831
-0.00784495
-0.00728332
-0.00699794
-0.00687066
-0.0068405
-0.00686844
-0.00692542
-0.00699567
-0.00707317
-0.00715503
-0.00723967
-0.00732587
-0.00741105
-0.00749325
-0.0075743
-0.00765798
-0.0077457
-0.00783606
-0.00792778
-0.00802082
-0.00811506
-0.00820979
-0.00830423
-0.00839815
-0.00849167
-0.00858439
-0.00867536
-0.00876407
-0.008851
-0.00893694
-0.00902217
-0.00910618
-0.00918839
-0.00926864
-0.00934716
-0.00942426
-0.0095001
-0.00957436
-0.00964677
-0.00971727
-0.00978636
-0.00985423
-0.0099209
-0.0099862
-0.0100501
-0.0101128
-0.0101748
-0.010236
-0.0102964
-0.0103558
-0.0104139
-0.0104711
-0.0105275
-0.0105833
-0.0106384
-0.0106926
-0.0107457
-0.0107982
-0.0108505
-0.0109025
-0.0109539
-0.011005
-0.011056
-0.011107
-0.011158
-0.0112088
-0.0112595
-0.0113102
-0.0113609
-0.0114116
-0.0114623
-0.0115128
-0.0115632
-0.0116137
-0.0116642
-0.0117147
-0.0117649
-0.0118149
-0.0118649
-0.0119149
-0.0119648
-0.0120145
-0.0120642
-0.0121137
-0.0121633
-0.0122124
-0.0122615
-0.0123104
-0.0123594
-0.0124081
-0.0124566
-0.0125049
-0.0125532
-0.0126016
-0.0126498
-0.0126981
-0.0127464
-0.0127949
-0.0128432
-0.0128919
-0.0129406
-0.0129895
-0.0130384
-0.0130874
-0.0131363
-0.0131852
-0.0132341
-0.0132829
-0.0133318
-0.0133803
-0.0134292
-0.0134777