/*--------------------------------*- C++ -*----------------------------------*\
| =========                 |                                                 |
| \\      /  F ield         | OpenFOAM: The Open Source CFD Toolbox           |
|  \\    /   O peration     | Version:  v2012                                 |
|   \\  /    A nd           | Website:  www.openfoam.com                      |
|    \\/     M anipulation  |                                                 |
\*---------------------------------------------------------------------------*/
FoamFile
{
    version     2.0;
    format      ascii;
    class       surfaceScalarField;
    location    "4.25";
    object      phi;
}
// * * * * * * * * * * * * * * * * * * * * * * * * * * * * * * * * * * * * * //

dimensions      [0 3 -1 0 0 0 0];
oriented        oriented;


internalField   nonuniform List<scalar> 
34900
(
1.17089e-06
1.7039e-07
1.16452e-06
-2.76858e-07
1.17019e-06
3.69436e-07
1.15362e-06
-5.24815e-07
1.16707e-06
3.91195e-07
1.14953e-06
-3.28458e-07
1.16321e-06
1.54271e-07
1.15434e-06
4.25798e-08
1.16377e-06
5.33106e-08
1.15547e-06
1.02072e-07
1.16295e-06
7.75214e-08
1.15273e-06
5.83525e-08
1.15939e-06
7.76203e-08
1.14752e-06
4.04465e-08
1.15396e-06
6.58876e-08
1.14073e-06
2.48169e-08
1.14695e-06
6.51083e-08
1.13276e-06
1.91035e-08
1.13432e-06
8.27501e-08
2.33463e-08
1.09678e-06
1.22445e-06
1.70198e-07
1.21925e-06
-2.7165e-07
1.22207e-06
3.66609e-07
1.2063e-06
-5.09038e-07
1.21687e-06
3.80622e-07
1.20219e-06
-3.13783e-07
1.21252e-06
1.43948e-07
1.20952e-06
4.55799e-08
1.2152e-06
4.76288e-08
1.21327e-06
1.04002e-07
1.21541e-06
7.53787e-08
1.2126e-06
6.11671e-08
1.21113e-06
7.90806e-08
1.21003e-06
4.1547e-08
1.20405e-06
7.18698e-08
1.20655e-06
2.23231e-08
1.19382e-06
7.78323e-08
1.20212e-06
1.08024e-08
1.17645e-06
1.08421e-07
1.95423e-08
1.18026e-06
1.27985e-06
1.73135e-07
1.27638e-06
-2.68185e-07
1.27667e-06
3.66322e-07
1.26248e-06
-4.94853e-07
1.2692e-06
3.73904e-07
1.25921e-06
-3.03788e-07
1.26368e-06
1.39471e-07
1.26838e-06
4.08868e-08
1.26821e-06
4.77981e-08
1.27412e-06
9.80913e-08
1.26991e-06
7.95892e-08
1.2748e-06
5.62774e-08
1.26679e-06
8.70902e-08
1.27246e-06
3.58771e-08
1.26162e-06
8.27038e-08
1.2674e-06
1.65434e-08
1.2552e-06
9.00322e-08
1.25882e-06
7.18936e-09
1.24591e-06
1.21325e-07
3.32707e-08
1.23219e-06
1.33803e-06
1.79213e-07
1.33686e-06
-2.67023e-07
1.33535e-06
3.67833e-07
1.32398e-06
-4.83474e-07
1.32689e-06
3.70988e-07
1.32248e-06
-2.99376e-07
1.32063e-06
1.41319e-07
1.33117e-06
3.03496e-08
1.32693e-06
5.2038e-08
1.33633e-06
8.86874e-08
1.33049e-06
8.54321e-08
1.33687e-06
4.98982e-08
1.32958e-06
9.43814e-08
1.33415e-06
3.13053e-08
1.3269e-06
8.99506e-08
1.32876e-06
1.46846e-08
1.3227e-06
9.60949e-08
1.32026e-06
9.62893e-09
1.31467e-06
1.26913e-07
5.09197e-08
1.29702e-06
1.40015e-06
1.8742e-07
1.40089e-06
-2.67762e-07
1.39906e-06
3.6966e-07
1.39065e-06
-4.75065e-07
1.39133e-06
3.70307e-07
1.39085e-06
-2.98896e-07
1.38544e-06
1.46734e-07
1.39747e-06
1.83159e-08
1.39294e-06
5.65713e-08
1.40139e-06
8.02303e-08
1.39774e-06
8.90857e-08
1.40217e-06
4.54644e-08
1.39818e-06
9.83717e-08
1.40027e-06
2.92162e-08
1.39645e-06
9.37707e-08
1.39594e-06
1.52004e-08
1.39252e-06
9.95095e-08
1.38799e-06
1.41576e-08
1.38439e-06
1.30515e-07
6.85483e-08
1.36676e-06
1.4671e-06
1.95993e-07
1.46861e-06
-2.69265e-07
1.46797e-06
3.70294e-07
1.46177e-06
-4.68868e-07
1.46211e-06
3.69968e-07
1.4629e-06
-2.99684e-07
1.45718e-06
1.52459e-07
1.46731e-06
8.18011e-09
1.46464e-06
5.92472e-08
1.47076e-06
7.41051e-08
1.46966e-06
9.01872e-08
1.47232e-06
4.27996e-08
1.47057e-06
1.0013e-07
1.47147e-06
2.83093e-08
1.46918e-06
9.60639e-08
1.46785e-06
1.65315e-08
1.46551e-06
1.0185e-07
1.45974e-06
1.99215e-08
1.45761e-06
1.32645e-07
8.62172e-08
1.43995e-06
1.53907e-06
2.03138e-07
1.54017e-06
-2.70364e-07
1.54153e-06
3.68935e-07
1.53653e-06
-4.63865e-07
1.53767e-06
3.68827e-07
1.53775e-06
-2.99762e-07
1.53341e-06
1.56795e-07
1.54051e-06
1.07902e-09
1.53964e-06
6.01171e-08
1.54403e-06
6.97132e-08
1.54436e-06
8.98623e-08
1.54628e-06
4.08782e-08
1.54558e-06
1.0083e-07
1.54613e-06
2.77643e-08
1.54466e-06
9.75274e-08
1.5428e-06
1.83887e-08
1.54148e-06
1.03176e-07
1.53445e-06
2.69508e-08
1.53377e-06
1.33329e-07
1.03589e-07
1.51639e-06
1.61547e-06
2.078e-07
1.61555e-06
-2.70442e-07
1.6188e-06
3.65683e-07
1.61422e-06
-4.59291e-07
1.61644e-06
3.66607e-07
1.61505e-06
-2.98371e-07
1.61229e-06
1.59557e-07
1.61671e-06
-3.34462e-09
1.61682e-06
6.00149e-08
1.62026e-06
6.62641e-08
1.62118e-06
8.89513e-08
1.62289e-06
3.91663e-08
1.62282e-06
1.009e-07
1.62319e-06
2.73965e-08
1.62252e-06
9.81923e-08
1.62008e-06
2.0825e-08
1.61989e-06
1.03367e-07
1.6117e-06
3.51428e-08
1.61221e-06
1.3282e-07
1.20062e-07
1.59574e-06
1.69545e-06
2.09921e-07
1.69453e-06
-2.69517e-07
1.69904e-06
3.61175e-07
1.69448e-06
-4.54736e-07
1.69768e-06
3.63411e-07
1.69488e-06
-2.95571e-07
1.69336e-06
1.61076e-07
1.69587e-06
-5.85415e-09
1.69636e-06
5.95206e-08
1.69923e-06
6.33983e-08
1.70042e-06
8.77588e-08
1.702e-06
3.75811e-08
1.7025e-06
1.00403e-07
1.70264e-06
2.72594e-08
1.70287e-06
9.79656e-08
1.69978e-06
2.39116e-08
1.70075e-06
1.02399e-07
1.69162e-06
4.42723e-08
1.69295e-06
1.3149e-07
1.35071e-07
1.67794e-06
1.77854e-06
2.10106e-07
1.77696e-06
-2.67938e-07
1.78206e-06
3.56077e-07
1.77733e-06
-4.50008e-07
1.78141e-06
3.59325e-07
1.77753e-06
-2.91688e-07
1.77707e-06
1.61541e-07
1.77829e-06
-7.07968e-09
1.77903e-06
5.87857e-08
1.78137e-06
6.10544e-08
1.78281e-06
8.63193e-08
1.78416e-06
3.62313e-08
1.78525e-06
9.93152e-08
1.78502e-06
2.74895e-08
1.7862e-06
9.67842e-08
1.7824e-06
2.77067e-08
1.78443e-06
1.00376e-07
1.77466e-06
5.40351e-08
1.77635e-06
1.29808e-07
1.48149e-07
1.76327e-06
1.86475e-06
2.09102e-07
1.86287e-06
-2.66056e-07
1.86814e-06
3.50813e-07
1.86313e-06
-4.45002e-07
1.86811e-06
3.54342e-07
1.86343e-06
-2.87e-07
1.86406e-06
1.60905e-07
1.8644e-06
-7.41467e-09
1.86547e-06
5.77068e-08
1.86727e-06
5.92638e-08
1.86901e-06
8.45717e-08
1.86997e-06
3.52747e-08
1.87168e-06
9.76065e-08
1.87092e-06
2.82447e-08
1.87305e-06
9.46559e-08
1.86853e-06
3.22248e-08
1.87136e-06
9.75455e-08
1.86134e-06
6.406e-08
1.86285e-06
1.28298e-07
1.58963e-07
1.85203e-06
1.95448e-06
2.07465e-07
1.95249e-06
-2.64072e-07
1.95777e-06
3.45538e-07
1.9524e-06
-4.39637e-07
1.9583e-06
3.48439e-07
1.95295e-06
-2.81647e-07
1.95482e-06
1.59041e-07
1.95446e-06
-7.05808e-09
1.95607e-06
5.60981e-08
1.95727e-06
5.80647e-08
1.95942e-06
8.2417e-08
1.95984e-06
3.48536e-08
1.9622e-06
9.52486e-08
1.9608e-06
2.96493e-08
1.96378e-06
9.1668e-08
1.95861e-06
3.73945e-08
1.96188e-06
9.42764e-08
1.95201e-06
7.39379e-08
1.95286e-06
1.27441e-07
1.67372e-07
1.94445e-06
2.04816e-06
2.05494e-07
2.04613e-06
-2.62038e-07
2.05143e-06
3.40231e-07
2.04563e-06
-4.33834e-07
2.05245e-06
3.41619e-07
2.04645e-06
-2.75649e-07
2.04963e-06
1.55869e-07
2.04864e-06
-6.0715e-09
2.05095e-06
5.37832e-08
2.05153e-06
5.74926e-08
2.0542e-06
7.97421e-08
2.05399e-06
3.50625e-08
2.05702e-06
9.22247e-08
2.05492e-06
3.1748e-08
2.0586e-06
8.79849e-08
2.05296e-06
4.30355e-08
2.05623e-06
9.10075e-08
2.0469e-06
8.32694e-08
2.04676e-06
1.27574e-07
1.73456e-07
2.04068e-06
2.14619e-06
2.03307e-07
2.14408e-06
-2.59927e-07
2.14952e-06
3.34784e-07
2.1432e-06
-4.27515e-07
2.15092e-06
3.33899e-07
2.14424e-06
-2.68963e-07
2.14872e-06
1.5139e-07
2.14707e-06
-4.4278e-09
2.15023e-06
5.06264e-08
2.15014e-06
5.75862e-08
2.15344e-06
7.64389e-08
2.15256e-06
3.59381e-08
2.15624e-06
8.85461e-08
2.15351e-06
3.44775e-08
2.15765e-06
8.38438e-08
2.15182e-06
4.88712e-08
2.15464e-06
8.81811e-08
2.14619e-06
9.17187e-08
2.14492e-06
1.2885e-07
1.77493e-07
2.14088e-06
2.24886e-06
2.00938e-07
2.24661e-06
-2.57678e-07
2.25232e-06
3.29069e-07
2.24541e-06
-4.20604e-07
2.25402e-06
3.25287e-07
2.24658e-06
-2.61517e-07
2.25232e-06
1.45644e-07
2.24995e-06
-2.05093e-09
2.25404e-06
4.65321e-08
2.25324e-06
5.83853e-08
2.25725e-06
7.24291e-08
2.25574e-06
3.7454e-08
2.26e-06
8.42778e-08
2.25682e-06
3.76635e-08
2.26112e-06
7.95416e-08
2.25542e-06
5.45755e-08
2.25742e-06
8.61746e-08
2.25009e-06
9.90563e-08
2.2477e-06
1.31235e-07
1.79892e-07
2.2453e-06
2.35643e-06
1.98386e-07
2.35397e-06
-2.55225e-07
2.36008e-06
3.22965e-07
2.3525e-06
-4.13031e-07
2.36203e-06
3.15764e-07
2.35374e-06
-2.53232e-07
2.36072e-06
1.38665e-07
2.35752e-06
1.15299e-09
2.36261e-06
4.14374e-08
2.36108e-06
5.99161e-08
2.36582e-06
6.7688e-08
2.36376e-06
3.95119e-08
2.36848e-06
7.95643e-08
2.36511e-06
4.10304e-08
2.36924e-06
7.54139e-08
2.36398e-06
5.98383e-08
2.36492e-06
8.5233e-08
2.35877e-06
1.05209e-07
2.35547e-06
1.34531e-07
1.81118e-07
2.35424e-06
2.46914e-06
1.95644e-07
2.46642e-06
-2.52506e-07
2.47302e-06
3.16368e-07
2.46471e-06
-4.04726e-07
2.4752e-06
3.0528e-07
2.46599e-06
-2.44028e-07
2.4742e-06
1.30459e-07
2.47008e-06
5.27203e-09
2.4762e-06
3.53116e-08
2.47395e-06
6.21676e-08
2.47937e-06
6.2267e-08
2.47696e-06
4.19297e-08
2.48188e-06
7.46385e-08
2.47868e-06
4.42369e-08
2.4823e-06
7.1792e-08
2.47771e-06
6.44289e-08
2.47752e-06
8.54232e-08
2.47244e-06
1.10282e-07
2.46856e-06
1.3841e-07
1.81634e-07
2.46805e-06
2.58724e-06
1.92699e-07
2.58419e-06
-2.49459e-07
2.59138e-06
3.09181e-07
2.58227e-06
-3.95622e-07
2.59379e-06
2.93762e-07
2.58359e-06
-2.33825e-07
2.59304e-06
1.21008e-07
2.58794e-06
1.03702e-08
2.59509e-06
2.81649e-08
2.59219e-06
6.50695e-08
2.59815e-06
5.63056e-08
2.59564e-06
4.4439e-08
2.60047e-06
6.98081e-08
2.59778e-06
4.69234e-08
2.60062e-06
6.89499e-08
2.59681e-06
6.82438e-08
2.5956e-06
8.66309e-08
2.59136e-06
1.14522e-07
2.58728e-06
1.42497e-07
1.81843e-07
2.58707e-06
2.71099e-06
1.89537e-07
2.70755e-06
-2.46014e-07
2.71542e-06
3.01304e-07
2.70544e-06
-3.85642e-07
2.71808e-06
2.81121e-07
2.70681e-06
-2.22549e-07
2.71753e-06
1.1029e-07
2.71143e-06
1.64687e-08
2.71953e-06
2.00645e-08
2.71613e-06
6.84693e-08
2.72239e-06
5.00436e-08
2.72014e-06
4.6688e-08
2.72453e-06
6.54175e-08
2.72267e-06
4.87848e-08
2.72458e-06
6.7037e-08
2.72149e-06
7.13415e-08
2.71951e-06
8.86118e-08
2.71582e-06
1.18206e-07
2.71185e-06
1.46466e-07
1.82039e-07
2.71166e-06
2.84066e-06
1.86141e-07
2.83674e-06
-2.42094e-07
2.84542e-06
2.9263e-07
2.83448e-06
-3.74706e-07
2.84834e-06
2.67266e-07
2.83593e-06
-2.10142e-07
2.84793e-06
9.82949e-08
2.84087e-06
2.35292e-08
2.84978e-06
1.11542e-08
2.84613e-06
7.21161e-08
2.85236e-06
4.38136e-08
2.85077e-06
4.82762e-08
2.8544e-06
6.17848e-08
2.85355e-06
4.96405e-08
2.85456e-06
6.60241e-08
2.85196e-06
7.39414e-08
2.8495e-06
9.10764e-08
2.84616e-06
1.21542e-07
2.84251e-06
1.50114e-07
1.82383e-07
2.84217e-06
2.97655e-06
1.82491e-07
2.97206e-06
-2.37607e-07
2.98165e-06
2.83039e-07
2.96967e-06
-3.62731e-07
2.98483e-06
2.52111e-07
2.97126e-06
-1.96575e-07
2.9845e-06
8.50589e-08
2.97659e-06
3.14342e-08
2.98608e-06
1.6709e-09
2.98254e-06
7.56568e-08
2.98833e-06
3.80225e-08
2.98781e-06
4.87987e-08
2.99045e-06
5.91392e-08
2.99061e-06
4.94853e-08
2.99095e-06
6.56827e-08
2.98851e-06
7.63752e-08
2.9858e-06
9.37917e-08
2.98272e-06
1.2462e-07
2.97948e-06
1.53355e-07
1.82926e-07
2.97894e-06
3.11893e-06
1.78566e-07
3.11378e-06
-2.32453e-07
3.12441e-06
2.72403e-07
3.11132e-06
-3.49639e-07
3.12784e-06
2.35593e-07
3.11313e-06
-1.81866e-07
3.12751e-06
7.06816e-08
3.11897e-06
3.99683e-08
3.12869e-06
-8.04282e-09
3.1257e-06
7.86454e-08
3.13061e-06
3.3113e-08
3.13149e-06
4.79111e-08
3.13307e-06
5.75596e-08
3.13406e-06
4.84953e-08
3.13412e-06
6.56308e-08
3.13151e-06
7.89802e-08
3.12864e-06
9.66642e-08
3.12576e-06
1.27498e-07
3.12299e-06
1.56129e-07
1.8365e-07
3.12226e-06
3.26813e-06
1.74345e-07
3.2622e-06
-2.2652e-07
3.27401e-06
2.6059e-07
3.25974e-06
-3.3537e-07
3.27765e-06
2.17688e-07
3.26188e-06
-1.66099e-07
3.27721e-06
5.535e-08
3.26837e-06
4.88061e-08
3.27786e-06
-1.7533e-08
3.27595e-06
8.05574e-08
3.27954e-06
2.95244e-08
3.28207e-06
4.53799e-08
3.28268e-06
5.69534e-08
3.28421e-06
4.69629e-08
3.28442e-06
6.54257e-08
3.28144e-06
8.19526e-08
3.27826e-06
9.98463e-08
3.27534e-06
1.30422e-07
3.27335e-06
1.58112e-07
1.84658e-07
3.27235e-06
3.42447e-06
1.69809e-07
3.41765e-06
-2.19702e-07
3.43076e-06
2.47479e-07
3.41529e-06
-3.19902e-07
3.43454e-06
1.98437e-07
3.4179e-06
-1.49454e-07
3.43388e-06
3.93711e-08
3.4252e-06
5.74873e-08
3.4339e-06
-2.62369e-08
3.43363e-06
8.08277e-08
3.43552e-06
2.76343e-08
3.43977e-06
4.11267e-08
3.43964e-06
5.70825e-08
3.4414e-06
4.52038e-08
3.44225e-06
6.45739e-08
3.43924e-06
8.49675e-08
3.43503e-06
1.04057e-07
3.43108e-06
1.34371e-07
3.43022e-06
1.5897e-07
1.85919e-07
3.42896e-06
3.58828e-06
1.64945e-07
3.58047e-06
-2.119e-07
3.59497e-06
2.32981e-07
3.57834e-06
-3.0327e-07
3.59881e-06
1.77963e-07
3.58158e-06
-1.3222e-07
3.59779e-06
2.31638e-08
3.5898e-06
6.54715e-08
3.59716e-06
-3.35899e-08
3.59898e-06
7.90049e-08
3.59902e-06
2.75897e-08
3.60479e-06
3.53633e-08
3.60439e-06
5.74744e-08
3.60601e-06
4.35927e-08
3.60812e-06
6.24639e-08
3.60814e-06
8.49389e-08
3.60922e-06
1.02979e-07
3.60438e-06
1.39215e-07
3.58815e-06
1.75197e-07
1.82806e-07
3.59127e-06
3.75991e-06
1.59745e-07
3.75104e-06
-2.03039e-07
3.76697e-06
2.17056e-07
3.74928e-06
-2.85585e-07
3.77076e-06
1.56486e-07
3.75334e-06
-1.148e-07
3.76927e-06
7.23241e-09
3.76254e-06
7.22079e-08
3.76808e-06
-3.91305e-08
3.77217e-06
7.49175e-08
3.77062e-06
2.91315e-08
3.77729e-06
2.86942e-08
3.7775e-06
5.72719e-08
3.77868e-06
4.24062e-08
3.78258e-06
5.857e-08
3.78676e-06
8.075e-08
3.79222e-06
9.75216e-08
3.80162e-06
1.29813e-07
3.8146e-06
1.62221e-07
2.05859e-07
3.79155e-06
3.93972e-06
1.54214e-07
3.92976e-06
-1.93084e-07
3.94707e-06
1.9975e-07
3.92856e-06
-2.67075e-07
3.95069e-06
1.34352e-07
3.93362e-06
-9.77254e-08
3.9487e-06
-7.84778e-09
3.94374e-06
7.71719e-08
3.94714e-06
-4.25364e-08
3.95341e-06
6.86516e-08
3.95079e-06
3.17477e-08
3.95766e-06
2.18209e-08
3.95931e-06
5.56267e-08
3.961e-06
4.07179e-08
3.96471e-06
5.4856e-08
3.95661e-06
8.88562e-08
3.94615e-06
1.07982e-07
3.94109e-06
1.34869e-07
3.93293e-06
1.70378e-07
1.99196e-07
3.9396e-06
4.1281e-06
1.48369e-07
4.11707e-06
-1.82057e-07
4.1356e-06
1.81223e-07
4.11661e-06
-2.48092e-07
4.13895e-06
1.12016e-07
4.12283e-06
-8.16067e-08
4.1365e-06
-2.15167e-08
4.13368e-06
7.9987e-08
4.13489e-06
-4.37473e-08
4.14297e-06
6.05799e-08
4.13994e-06
3.4772e-08
4.14648e-06
1.52877e-08
4.14785e-06
5.4255e-08
4.14199e-06
4.65711e-08
4.13686e-06
5.99928e-08
4.13382e-06
9.18957e-08
4.12906e-06
1.12734e-07
4.12525e-06
1.38685e-07
4.12336e-06
1.72267e-07
1.95373e-07
4.12718e-06
4.32543e-06
1.42244e-07
4.31342e-06
-1.70054e-07
4.33287e-06
1.61776e-07
4.3139e-06
-2.29121e-07
4.33592e-06
8.99954e-08
4.32136e-06
-6.70436e-08
4.3332e-06
-3.33547e-08
4.33264e-06
8.05442e-08
4.33189e-06
-4.30032e-08
4.34117e-06
5.12998e-08
4.33773e-06
3.82163e-08
4.34018e-06
1.28364e-08
4.33796e-06
5.64734e-08
4.33117e-06
5.33679e-08
4.32901e-06
6.21509e-08
4.32629e-06
9.46112e-08
4.32185e-06
1.17178e-07
4.31945e-06
1.41081e-07
4.32059e-06
1.71131e-07
1.92218e-07
4.32374e-06
4.53213e-06
1.35889e-07
4.51933e-06
-1.57257e-07
4.53923e-06
1.41875e-07
4.52089e-06
-2.10779e-07
4.54204e-06
6.88436e-08
4.52957e-06
-5.45736e-08
4.53937e-06
-4.31504e-08
4.54087e-06
7.90453e-08
4.5386e-06
-4.07336e-08
4.54755e-06
4.23469e-08
4.54179e-06
4.39734e-08
4.54046e-06
1.41722e-08
4.53982e-06
5.71065e-08
4.53295e-06
6.02437e-08
4.5305e-06
6.45959e-08
4.5286e-06
9.65151e-08
4.5247e-06
1.21073e-07
4.52305e-06
1.42738e-07
4.52604e-06
1.68141e-07
1.89702e-07
4.52855e-06
4.74863e-06
1.29375e-07
4.73531e-06
-1.43939e-07
4.75505e-06
1.22137e-07
4.73802e-06
-1.93747e-07
4.75782e-06
4.9039e-08
4.74777e-06
-4.45181e-08
4.75563e-06
-5.10151e-08
4.75866e-06
7.60158e-08
4.75487e-06
-3.69451e-08
4.7613e-06
3.59212e-08
4.75419e-06
5.10797e-08
4.75132e-06
1.70443e-08
4.75169e-06
5.6741e-08
4.74528e-06
6.66456e-08
4.74208e-06
6.78032e-08
4.74085e-06
9.77433e-08
4.73772e-06
1.242e-07
4.73672e-06
1.4374e-07
4.73963e-06
1.65233e-07
1.86735e-07
4.7426e-06
4.97538e-06
1.22788e-07
4.96191e-06
-1.30464e-07
4.98074e-06
1.03302e-07
4.9657e-06
-1.78701e-07
4.98385e-06
3.08842e-08
4.97625e-06
-3.69161e-08
4.98253e-06
-5.72943e-08
4.98612e-06
7.24268e-08
4.97969e-06
-3.05197e-08
4.98382e-06
3.17979e-08
4.97708e-06
5.78158e-08
4.9728e-06
2.13292e-08
4.97388e-06
5.56592e-08
4.96829e-06
7.22304e-08
4.96429e-06
7.18061e-08
4.96345e-06
9.85862e-08
4.96128e-06
1.26366e-07
4.96085e-06
1.44174e-07
4.96304e-06
1.63041e-07
1.83034e-07
4.96674e-06
5.21288e-06
1.16226e-07
5.19967e-06
-1.17257e-07
5.21683e-06
8.61436e-08
5.20427e-06
-1.66139e-07
5.22079e-06
1.43661e-08
5.21544e-06
-3.15651e-08
5.22035e-06
-6.2213e-08
5.22328e-06
6.95023e-08
5.21322e-06
-2.04651e-08
5.21658e-06
2.84419e-08
5.21095e-06
6.34454e-08
5.2055e-06
2.67746e-08
5.2068e-06
5.43631e-08
5.20228e-06
7.67517e-08
5.19765e-06
7.6431e-08
5.19689e-06
9.93552e-08
5.19587e-06
1.27382e-07
5.1957e-06
1.44341e-07
5.19757e-06
1.61174e-07
1.78939e-07
5.20167e-06
5.46163e-06
1.09787e-07
5.44914e-06
-1.04765e-07
5.46399e-06
7.1286e-08
5.45395e-06
-1.56096e-07
5.4693e-06
-9.86058e-10
5.46571e-06
-2.79757e-08
5.46924e-06
-6.57371e-08
5.4697e-06
6.90391e-08
5.45759e-06
-8.35673e-09
5.46047e-06
2.55678e-08
5.45633e-06
6.75843e-08
5.44995e-06
3.3152e-08
5.45094e-06
5.33697e-08
5.44764e-06
8.0053e-08
5.44269e-06
8.13845e-08
5.44176e-06
1.00287e-07
5.44187e-06
1.2727e-07
5.44188e-06
1.44328e-07
5.44371e-06
1.59342e-07
1.7466e-07
5.44799e-06
5.72218e-06
1.03562e-07
5.71085e-06
-9.34346e-08
5.72304e-06
5.90984e-08
5.71497e-06
-1.48025e-07
5.72967e-06
-1.56875e-08
5.72629e-06
-2.45906e-08
5.72586e-06
-6.53064e-08
5.72633e-06
6.85686e-08
5.71391e-06
4.05987e-09
5.71624e-06
2.32381e-08
5.71364e-06
7.01831e-08
5.70664e-06
4.01569e-08
5.70692e-06
5.30861e-08
5.7048e-06
8.21719e-08
5.69991e-06
8.62787e-08
5.6987e-06
1.0149e-07
5.69968e-06
1.26293e-07
5.70002e-06
1.43983e-07
5.70195e-06
1.57416e-07
1.70299e-07
5.70631e-06
5.99514e-06
9.76172e-08
5.9854e-06
-8.36966e-08
5.99483e-06
4.96712e-08
5.98747e-06
-1.40666e-07
6.00059e-06
-2.88131e-08
5.99511e-06
-1.91052e-08
5.9926e-06
-6.27979e-08
5.99513e-06
6.60392e-08
5.98323e-06
1.59575e-08
5.98441e-06
2.20618e-08
5.98334e-06
7.12494e-08
5.97607e-06
4.74277e-08
5.97541e-06
5.37429e-08
5.97425e-06
8.33355e-08
5.9698e-06
9.07259e-08
5.96837e-06
1.02921e-07
5.96985e-06
1.24819e-07
5.97071e-06
1.43117e-07
5.97282e-06
1.55308e-07
1.6591e-07
5.97721e-06
6.28112e-06
9.19898e-08
6.27325e-06
-7.5831e-08
6.28022e-06
4.2699e-08
6.27177e-06
-1.32213e-07
6.28278e-06
-3.98203e-08
6.27755e-06
-1.38828e-08
6.27349e-06
-5.87337e-08
6.27712e-06
6.2409e-08
6.26596e-06
2.71217e-08
6.26564e-06
2.23752e-08
6.26589e-06
7.09998e-08
6.25878e-06
5.45391e-08
6.2571e-06
5.54233e-08
6.25659e-06
8.38484e-08
6.25285e-06
9.44608e-08
6.25137e-06
1.04401e-07
6.253e-06
1.23194e-07
6.2545e-06
1.41617e-07
6.25688e-06
1.52925e-07
1.61512e-07
6.26128e-06
6.58077e-06
8.66921e-08
6.57486e-06
-6.99287e-08
6.5799e-06
3.7665e-08
6.5693e-06
-1.21617e-07
6.57904e-06
-4.95598e-08
6.57453e-06
-9.37478e-09
6.56867e-06
-5.28654e-08
6.5727e-06
5.8376e-08
6.56258e-06
3.72398e-08
6.56067e-06
2.42813e-08
6.56184e-06
6.98397e-08
6.55532e-06
6.10566e-08
6.55267e-06
5.80694e-08
6.55251e-06
8.40146e-08
6.54959e-06
9.7373e-08
6.54827e-06
1.05724e-07
6.54984e-06
1.21623e-07
6.55197e-06
1.39483e-07
6.55471e-06
1.50189e-07
1.57089e-07
6.55913e-06
6.89478e-06
8.17034e-08
6.89065e-06
-6.57993e-08
6.89452e-06
3.379e-08
6.88176e-06
-1.08857e-07
6.88981e-06
-5.76028e-08
6.88611e-06
-5.67469e-09
6.87847e-06
-4.52228e-08
6.88245e-06
5.43874e-08
6.87366e-06
4.60303e-08
6.87025e-06
2.76973e-08
6.87182e-06
6.82676e-08
6.86622e-06
6.66549e-08
6.86282e-06
6.14689e-08
6.86273e-06
8.41046e-08
6.86065e-06
9.94537e-08
6.85963e-06
1.06746e-07
6.8611e-06
1.20154e-07
6.86379e-06
1.36795e-07
6.86694e-06
1.47037e-07
1.526e-07
6.87143e-06
7.22386e-06
7.69773e-08
7.22113e-06
-6.30692e-08
7.22477e-06
3.01497e-08
7.21005e-06
-9.4137e-08
7.21588e-06
-6.34267e-08
7.2128e-06
-2.59695e-09
7.2035e-06
-3.59239e-08
7.20704e-06
5.08438e-08
7.19979e-06
5.32851e-08
7.19511e-06
3.2378e-08
7.19659e-06
6.67843e-08
7.19207e-06
7.11797e-08
7.18822e-06
6.53165e-08
7.18801e-06
8.43155e-08
7.18673e-06
1.00731e-07
7.18605e-06
1.07425e-07
7.18749e-06
1.18719e-07
7.19062e-06
1.33664e-07
7.19422e-06
1.43434e-07
1.47993e-07
7.19883e-06
7.56876e-06
7.24472e-08
7.56704e-06
-6.13565e-08
7.57125e-06
2.59394e-08
7.55513e-06
-7.80125e-08
7.55814e-06
-6.64365e-08
7.55523e-06
3.12709e-10
7.54447e-06
-2.51637e-08
7.54723e-06
4.80874e-08
7.54156e-06
5.89463e-08
7.53599e-06
3.79488e-08
7.53698e-06
6.58013e-08
7.53349e-06
7.46681e-08
7.52952e-06
6.92815e-08
7.5291e-06
8.47391e-08
7.52857e-06
1.01258e-07
7.52822e-06
1.07773e-07
7.52972e-06
1.17219e-07
7.53319e-06
1.30194e-07
7.53726e-06
1.39372e-07
1.43207e-07
7.54204e-06
7.93022e-06
6.80363e-08
7.92906e-06
-6.01925e-08
7.93467e-06
2.03314e-08
7.91825e-06
-6.15945e-08
7.91742e-06
-6.56126e-08
7.91403e-06
3.7084e-09
7.90216e-06
-1.32969e-08
7.90382e-06
4.6434e-08
7.89966e-06
6.31042e-08
7.89363e-06
4.3981e-08
7.89383e-06
6.55953e-08
7.8912e-06
7.72963e-08
7.8874e-06
7.30869e-08
7.88679e-06
8.53442e-08
7.88692e-06
1.0113e-07
7.88692e-06
1.07776e-07
7.88855e-06
1.15589e-07
7.89227e-06
1.26468e-07
7.89677e-06
1.34874e-07
1.38183e-07
7.9018e-06
8.30904e-06
6.36781e-08
8.30792e-06
-5.90761e-08
8.31713e-06
1.11209e-08
8.30083e-06
-4.52905e-08
8.29437e-06
-5.91563e-08
8.28988e-06
8.19737e-09
8.27742e-06
-8.31341e-10
8.2777e-06
4.61575e-08
8.27479e-06
6.60142e-08
8.26872e-06
5.00434e-08
8.26804e-06
6.62795e-08
8.26602e-06
7.93133e-08
8.26255e-06
7.65541e-08
8.26187e-06
8.60312e-08
8.26256e-06
1.00442e-07
8.26294e-06
1.07394e-07
8.26473e-06
1.13799e-07
8.26864e-06
1.22557e-07
8.27353e-06
1.29982e-07
1.32873e-07
8.27884e-06
8.70601e-06
5.93285e-08
8.70571e-06
-5.87754e-08
8.71821e-06
-1.37828e-09
8.70249e-06
-2.95672e-08
8.68898e-06
-4.56466e-08
8.68362e-06
1.35523e-08
8.67119e-06
1.16015e-08
8.66981e-06
4.75396e-08
8.66773e-06
6.80954e-08
8.66201e-06
5.57592e-08
8.66048e-06
6.78058e-08
8.65883e-06
8.09675e-08
8.65578e-06
7.9606e-08
8.65512e-06
8.66934e-08
8.6563e-06
9.92577e-08
8.65711e-06
1.06588e-07
8.65909e-06
1.11818e-07
8.66312e-06
1.18521e-07
8.66835e-06
1.24756e-07
1.27252e-07
8.67397e-06
9.12192e-06
5.50315e-08
9.12552e-06
-6.23834e-08
9.1391e-06
-1.49525e-08
9.11703e-06
-7.49568e-09
9.10121e-06
-2.98256e-08
9.09625e-06
1.85131e-08
9.0844e-06
2.34475e-08
9.08113e-06
5.08042e-08
9.07936e-06
6.98714e-08
9.07423e-06
6.08888e-08
9.07205e-06
6.99802e-08
9.07054e-06
8.24833e-08
9.06791e-06
8.2233e-08
9.06736e-06
8.72428e-08
9.06896e-06
9.76583e-08
9.07026e-06
1.05287e-07
9.07248e-06
1.09595e-07
9.0766e-06
1.14407e-07
9.08208e-06
1.19273e-07
1.21318e-07
9.08802e-06
9.55759e-06
5.09046e-08
9.55674e-06
-6.15388e-08
9.55953e-06
-1.77404e-08
9.54493e-06
7.10828e-09
9.53241e-06
-1.73101e-08
9.52876e-06
2.21625e-08
9.51788e-06
3.43325e-08
9.51268e-06
5.60007e-08
9.51071e-06
7.18401e-08
9.50625e-06
6.53533e-08
9.50372e-06
7.25031e-08
9.5022e-06
8.40114e-08
9.49994e-06
8.44875e-08
9.49956e-06
8.76223e-08
9.50145e-06
9.5771e-08
9.50332e-06
1.03414e-07
9.50585e-06
1.07071e-07
9.51002e-06
1.10237e-07
9.51566e-06
1.13627e-07
1.15094e-07
9.52189e-06
1.0014e-05
4.70864e-08
1.00005e-05
-4.8131e-08
1.00044e-05
-2.16369e-08
9.99597e-06
1.55784e-08
9.98454e-06
-5.87761e-09
9.9818e-06
2.48976e-08
9.97227e-06
4.38663e-08
9.96543e-06
6.28396e-08
9.96275e-06
7.45206e-08
9.95888e-06
6.92202e-08
9.95631e-06
7.50819e-08
9.95474e-06
8.55808e-08
9.95279e-06
8.64348e-08
9.95257e-06
8.7839e-08
9.95468e-06
9.3662e-08
9.95717e-06
1.00929e-07
9.96008e-06
1.04157e-07
9.96434e-06
1.05979e-07
9.97007e-06
1.07896e-07
1.08623e-07
9.97654e-06
1.04921e-05
4.35859e-08
1.04716e-05
-2.75695e-08
1.048e-05
-3.00493e-08
1.04719e-05
2.36819e-08
1.04587e-05
7.26119e-09
1.04561e-05
2.75433e-08
1.04482e-05
5.17316e-08
1.04404e-05
7.07072e-08
1.04366e-05
7.83397e-08
1.0433e-05
7.27331e-08
1.04307e-05
7.7466e-08
1.04291e-05
8.7143e-08
1.04274e-05
8.81363e-08
1.04273e-05
8.7927e-08
1.04296e-05
9.14038e-08
1.04326e-05
9.78546e-08
1.0436e-05
1.00762e-07
1.04404e-05
1.01561e-07
1.04462e-05
1.02117e-07
1.01994e-07
1.04529e-05
1.09937e-05
3.9918e-08
1.10012e-05
-3.5071e-08
1.09894e-05
-1.82134e-08
1.09713e-05
4.1702e-08
1.09562e-05
2.23648e-08
1.0953e-05
3.07527e-08
1.09467e-05
5.80346e-08
1.09384e-05
7.9023e-08
1.09332e-05
8.35262e-08
1.09297e-05
7.62872e-08
1.09276e-05
7.95453e-08
1.09262e-05
8.85505e-08
1.09247e-05
8.95912e-08
1.09247e-05
8.79052e-08
1.0927e-05
8.90944e-08
1.09307e-05
9.42219e-08
1.09346e-05
9.68011e-08
1.09393e-05
9.68783e-08
1.09452e-05
9.62717e-08
9.52718e-08
1.09519e-05
1.15185e-05
3.67692e-08
1.15005e-05
-1.70091e-08
1.15037e-05
-2.14436e-08
1.14956e-05
4.98309e-08
1.14791e-05
3.88649e-08
1.14737e-05
3.61163e-08
1.14687e-05
6.30395e-08
1.14606e-05
8.71271e-08
1.14542e-05
8.99117e-08
1.14502e-05
8.02865e-08
1.14484e-05
8.13719e-08
1.14473e-05
8.9642e-08
1.14461e-05
9.07484e-08
1.14463e-05
8.77612e-08
1.14484e-05
8.69386e-08
1.14525e-05
9.00979e-08
1.14571e-05
9.22527e-08
1.14621e-05
9.1845e-08
1.14681e-05
9.03314e-08
8.84822e-08
1.14749e-05
1.20689e-05
3.36997e-08
1.20525e-05
-6.17412e-10
1.20485e-05
-1.74539e-08
1.20441e-05
5.42343e-08
1.20277e-05
5.52766e-08
1.20197e-05
4.4118e-08
1.20153e-05
6.74258e-08
1.20078e-05
9.46093e-08
1.20005e-05
9.72728e-08
1.19957e-05
8.50944e-08
1.19939e-05
8.31761e-08
1.19932e-05
9.02941e-08
1.19924e-05
9.1499e-08
1.19928e-05
8.74429e-08
1.19947e-05
8.49718e-08
1.19992e-05
8.56301e-08
1.20043e-05
8.71122e-08
1.20098e-05
8.63626e-08
1.20159e-05
8.42201e-08
8.16086e-08
1.20228e-05
1.26453e-05
3.09684e-08
1.26278e-05
1.68854e-08
1.2623e-05
-1.26216e-08
1.26191e-05
5.81264e-08
1.26026e-05
7.17292e-08
1.25921e-05
5.46645e-08
1.25876e-05
7.18985e-08
1.25811e-05
1.01169e-07
1.25731e-05
1.05214e-07
1.25673e-05
9.08937e-08
1.25652e-05
8.52537e-08
1.2565e-05
9.04913e-08
1.25648e-05
9.17687e-08
1.25652e-05
8.70067e-08
1.25673e-05
8.28917e-08
1.25717e-05
8.11859e-08
1.25774e-05
8.14121e-08
1.25834e-05
8.03899e-08
1.25898e-05
7.78426e-08
7.4616e-08
1.25968e-05
1.32493e-05
2.85543e-08
1.32395e-05
2.67098e-08
1.32289e-05
-1.97314e-09
1.32217e-05
6.5343e-08
1.32052e-05
8.81985e-08
1.31924e-05
6.74747e-08
1.31871e-05
7.71703e-08
1.31815e-05
1.06822e-07
1.31733e-05
1.13365e-07
1.31665e-05
9.76918e-08
1.31638e-05
8.7939e-08
1.31639e-05
9.04044e-08
1.31642e-05
9.15199e-08
1.31648e-05
8.63833e-08
1.31672e-05
8.04913e-08
1.31714e-05
7.69221e-08
1.31776e-05
7.52132e-08
1.3184e-05
7.40057e-08
1.31908e-05
7.10508e-08
6.74106e-08
1.3198e-05
1.38821e-05
2.65995e-08
1.38741e-05
3.47614e-08
1.38607e-05
1.13461e-08
1.38528e-05
7.32449e-08
1.38368e-05
1.04206e-07
1.38219e-05
8.24079e-08
1.38152e-05
8.39081e-08
1.38102e-05
1.11807e-07
1.38022e-05
1.21317e-07
1.37946e-05
1.05317e-07
1.37911e-05
9.14863e-08
1.37911e-05
9.03626e-08
1.37919e-05
9.07589e-08
1.37929e-05
8.53732e-08
1.37955e-05
7.78728e-08
1.37998e-05
7.26169e-08
1.38063e-05
6.86575e-08
1.38129e-05
6.74094e-08
1.38203e-05
6.36721e-08
5.98725e-08
1.38279e-05
1.45449e-05
2.53983e-08
1.45282e-05
5.14742e-08
1.45187e-05
2.08167e-08
1.4514e-05
7.79734e-08
1.44988e-05
1.19341e-07
1.44821e-05
9.91387e-08
1.44734e-05
9.26043e-08
1.44686e-05
1.16621e-07
1.44611e-05
1.28764e-07
1.44529e-05
1.13516e-07
1.44484e-05
9.60402e-08
1.4448e-05
9.07549e-08
1.44491e-05
8.96057e-08
1.44506e-05
8.38654e-08
1.44534e-05
7.51304e-08
1.4458e-05
6.79666e-08
1.44646e-05
6.20634e-08
1.44716e-05
6.0442e-08
1.44795e-05
5.57814e-08
5.18257e-08
1.44875e-05
1.52395e-05
2.47396e-08
1.52282e-05
6.28536e-08
1.52126e-05
3.64146e-08
1.52058e-05
8.47737e-08
1.51923e-05
1.32809e-07
1.51743e-05
1.17169e-07
1.51633e-05
1.03583e-07
1.5158e-05
1.21938e-07
1.51511e-05
1.35604e-07
1.51426e-05
1.2202e-07
1.5137e-05
1.01631e-07
1.51359e-05
9.19131e-08
1.51372e-05
8.82734e-08
1.51392e-05
8.18679e-08
1.51422e-05
7.21114e-08
1.51473e-05
6.29332e-08
1.51535e-05
5.58033e-08
1.51616e-05
5.23441e-08
1.51695e-05
4.78967e-08
4.29849e-08
1.51783e-05
1.59672e-05
2.48448e-08
1.59598e-05
7.02404e-08
1.5939e-05
5.72153e-08
1.59307e-05
9.31429e-08
1.59185e-05
1.45014e-07
1.58998e-05
1.3585e-07
1.58864e-05
1.16938e-07
1.588e-05
1.28358e-07
1.58736e-05
1.42043e-07
1.5865e-05
1.30559e-07
1.58585e-05
1.08186e-07
1.58563e-05
9.40568e-08
1.58575e-05
8.70924e-08
1.58599e-05
7.9457e-08
1.58633e-05
6.87146e-08
1.58685e-05
5.77726e-08
1.58749e-05
4.93421e-08
1.58836e-05
4.36803e-08
1.58922e-05
3.92543e-08
3.39968e-08
1.59012e-05
1.67292e-05
2.62783e-08
1.67092e-05
9.01827e-08
1.66985e-05
6.79018e-08
1.66906e-05
1.0113e-07
1.66788e-05
1.56738e-07
1.66601e-05
1.54589e-07
1.66445e-05
1.32532e-07
1.66364e-05
1.36422e-07
1.66299e-05
1.48525e-07
1.66215e-05
1.39046e-07
1.6614e-05
1.15601e-07
1.66108e-05
9.72689e-08
1.66114e-05
8.64822e-08
1.66141e-05
7.68091e-08
1.66178e-05
6.49688e-08
1.66231e-05
5.25049e-08
1.66301e-05
4.2335e-08
1.6639e-05
3.48272e-08
1.66488e-05
2.94177e-08
2.48773e-08
1.66579e-05
1.75287e-05
2.79041e-08
1.75343e-05
8.46133e-08
1.75037e-05
9.84789e-08
1.74862e-05
1.18641e-07
1.7475e-05
1.67935e-07
1.74566e-05
1.73039e-07
1.7439e-05
1.50109e-07
1.74288e-05
1.46625e-07
1.74217e-05
1.55602e-07
1.74132e-05
1.47534e-07
1.7405e-05
1.23795e-07
1.74008e-05
1.01541e-07
1.74004e-05
8.68281e-08
1.7403e-05
7.4253e-08
1.7407e-05
6.09162e-08
1.74126e-05
4.6902e-08
1.74201e-05
3.48444e-08
1.74294e-05
2.55729e-08
1.74397e-05
1.90696e-08
1.42591e-08
1.74503e-05
1.83652e-05
3.10582e-08
1.83471e-05
1.02743e-07
1.83354e-05
1.10131e-07
1.83213e-05
1.32731e-07
1.8309e-05
1.80207e-07
1.82909e-05
1.91153e-07
1.82718e-05
1.69288e-07
1.82591e-05
1.59301e-07
1.82509e-05
1.63827e-07
1.82421e-05
1.56295e-07
1.82331e-05
1.32743e-07
1.82277e-05
1.06936e-07
1.82261e-05
8.84845e-08
1.82281e-05
7.21994e-08
1.82324e-05
5.66857e-08
1.82384e-05
4.08736e-08
1.82464e-05
2.68442e-08
1.82563e-05
1.5705e-08
1.82675e-05
7.88857e-09
2.36784e-09
1.82793e-05
1.92427e-05
3.47722e-08
1.92379e-05
1.07538e-07
1.92117e-05
1.36345e-07
1.9196e-05
1.48357e-07
1.91825e-05
1.93733e-07
1.91649e-05
2.08787e-07
1.91444e-05
1.89817e-07
1.91289e-05
1.74737e-07
1.91189e-05
1.73816e-07
1.91095e-05
1.65741e-07
1.90998e-05
1.42462e-07
1.9093e-05
1.13745e-07
1.90898e-05
9.16496e-08
1.90909e-05
7.10885e-08
1.9095e-05
5.25878e-08