/*--------------------------------*- C++ -*----------------------------------*\
| =========                 |                                                 |
| \\      /  F ield         | OpenFOAM: The Open Source CFD Toolbox           |
|  \\    /   O peration     | Version:  v2012                                 |
|   \\  /    A nd           | Website:  www.openfoam.com                      |
|    \\/     M anipulation  |                                                 |
\*---------------------------------------------------------------------------*/
FoamFile
{
    version     2.0;
    format      ascii;
    class       volVectorField;
    location    "4.25";
    object      U;
}
// * * * * * * * * * * * * * * * * * * * * * * * * * * * * * * * * * * * * * //

dimensions      [0 1 -1 0 0 0 0];


internalField   nonuniform List<vector> 
17600
(
(0.835964 0.00172836 0)
(1.15381 -0.0030661 0)
(0.853827 0.00444466 0)
(1.13594 -0.00693671 0)
(0.851943 0.00562281 0)
(1.13238 -0.00520212 0)
(0.849059 0.00268338 0)
(1.12904 0.000667066 0)
(0.858211 0.00114557 0)
(1.12321 0.00210598 0)
(0.864437 0.00190532 0)
(1.11677 0.00134908 0)
(0.865599 0.00224221 0)
(1.10964 0.00101558 0)
(0.863021 0.00223991 0)
(1.10372 0.000604616 0)
(0.855447 0.00252338 0)
(1.09957 0.000506838 0)
(0.841636 0.00347917 0)
(1.09536 0.000763625 0)
(0.846161 0.00171111 0)
(1.14091 -0.00300165 0)
(0.863716 0.00438424 0)
(1.12101 -0.00670632 0)
(0.861252 0.0054639 0)
(1.11503 -0.00493667 0)
(0.86049 0.00250878 0)
(1.10965 0.00081231 0)
(0.875592 0.00100009 0)
(1.10088 0.00222672 0)
(0.889171 0.00178005 0)
(1.08876 0.00153759 0)
(0.899474 0.00214362 0)
(1.07219 0.00125964 0)
(0.910556 0.00222701 0)
(1.05114 0.000844389 0)
(0.923814 0.00283523 0)
(1.02276 0.000478358 0)
(0.941915 0.00493317 0)
(0.980442 1.24386e-05 0)
(0.866026 0.00171762 0)
(1.11791 -0.00294554 0)
(0.883203 0.00435341 0)
(1.09731 -0.0064884 0)
(0.880889 0.00530346 0)
(1.08816 -0.00471586 0)
(0.884614 0.00234195 0)
(1.07722 0.000817045 0)
(0.906991 0.000917049 0)
(1.06442 0.00220835 0)
(0.926923 0.00179228 0)
(1.04872 0.00152687 0)
(0.942573 0.00228869 0)
(1.02924 0.00118641 0)
(0.956883 0.00254398 0)
(1.0085 0.000681955 0)
(0.967871 0.00332328 0)
(0.988332 0.000328597 0)
(0.973448 0.00543765 0)
(0.970402 0.00100381 0)
(0.892576 0.00176267 0)
(1.0892 -0.00292049 0)
(0.908911 0.004362 0)
(1.07026 -0.00632627 0)
(0.907449 0.00522898 0)
(1.0594 -0.00461207 0)
(0.91557 0.00231445 0)
(1.04372 0.000660016 0)
(0.940916 0.000975523 0)
(1.0305 0.00201771 0)
(0.959948 0.00193634 0)
(1.01822 0.00134965 0)
(0.972191 0.00253652 0)
(1.00519 0.000995043 0)
(0.980229 0.00287053 0)
(0.994024 0.000531843 0)
(0.982441 0.00366718 0)
(0.985214 0.000349601 0)
(0.979218 0.00567753 0)
(0.977319 0.00210669 0)
(0.921313 0.00183803 0)
(1.06025 -0.00292287 0)
(0.93575 0.00438654 0)
(1.04533 -0.00620652 0)
(0.935048 0.00521619 0)
(1.03532 -0.00459046 0)
(0.944877 0.00239763 0)
(1.01894 0.000434576 0)
(0.967404 0.00108414 0)
(1.00963 0.00180536 0)
(0.98075 0.002063 0)
(1.00408 0.00119934 0)
(0.987086 0.0026986 0)
(0.998344 0.000895088 0)
(0.989776 0.00305087 0)
(0.993415 0.000514671 0)
(0.988223 0.00385485 0)
(0.988419 0.000485707 0)
(0.983675 0.005865 0)
(0.981774 0.00312706 0)
(0.947664 0.00192679 0)
(1.03603 -0.00293979 0)
(0.959062 0.00440569 0)
(1.02645 -0.00611644 0)
(0.958529 0.00522055 0)
(1.01918 -0.00460114 0)
(0.967106 0.00250945 0)
(1.00553 0.000226122 0)
(0.983786 0.00116255 0)
(1.00115 0.00165039 0)
(0.991664 0.00211661 0)
(1.00066 0.00111687 0)
(0.994308 0.00277199 0)
(0.998839 0.000860753 0)
(0.994966 0.00314593 0)
(0.996168 0.000550018 0)
(0.992756 0.00397139 0)
(0.992087 0.000684847 0)
(0.988385 0.00600929 0)
(0.986009 0.00406038 0)
(0.968459 0.00200936 0)
(1.01917 -0.00295602 0)
(0.976326 0.00440434 0)
(1.01468 -0.00604469 0)
(0.975501 0.00521513 0)
(1.01049 -0.00460811 0)
(0.981381 0.0025986 0)
(1.00039 7.21372e-05 0)
(0.992426 0.00119407 0)
(0.999314 0.00154386 0)
(0.9971 0.00211942 0)
(1.00113 0.00106451 0)
(0.99837 0.00280198 0)
(1.00084 0.000840954 0)
(0.998631 0.00320536 0)
(0.999 0.000606048 0)
(0.9965 0.00403724 0)
(0.995454 0.000960806 0)
(0.992369 0.00606871 0)
(0.990064 0.00495475 0)
(0.982693 0.00207033 0)
(1.0094 -0.00296173 0)
(0.987453 0.00437741 0)
(1.00858 -0.00598179 0)
(0.986255 0.00519173 0)
(1.00671 -0.00459542 0)
(0.98955 0.00265505 0)
(0.999291 -2.87402e-05 0)
(0.996621 0.00119598 0)
(0.999566 0.00146143 0)
(0.999831 0.00210076 0)
(1.00208 0.00101819 0)
(1.00078 0.00281099 0)
(1.00243 0.00082433 0)
(1.00111 0.00324016 0)
(1.00111 0.000683465 0)
(0.999204 0.00405356 0)
(0.998065 0.00130523 0)
(0.995406 0.00605076 0)
(0.993332 0.00580454 0)
(0.991223 0.00210405 0)
(1.00465 -0.00295526 0)
(0.993874 0.00432989 0)
(1.00578 -0.00592192 0)
(0.992447 0.0051521 0)
(1.00535 -0.0045611 0)
(0.993972 0.0026868 0)
(0.99952 -9.016e-05 0)
(0.998698 0.00118712 0)
(1.00005 0.00139172 0)
(1.00122 0.0020752 0)
(1.00266 0.000973757 0)
(1.00212 0.00280517 0)
(1.00335 0.000813981 0)
(1.00261 0.00324777 0)
(1.00245 0.000786358 0)
(1.00099 0.00402002 0)
(0.999877 0.00169995 0)
(0.9976 0.00598347 0)
(0.995765 0.0065837 0)
(0.995792 0.00211413 0)
(1.00262 -0.00294005 0)
(0.997352 0.00427093 0)
(1.0044 -0.00586189 0)
(0.995845 0.00509957 0)
(1.00487 -0.00450891 0)
(0.996414 0.00270106 0)
(1.00002 -0.000123375 0)
(0.999908 0.00117475 0)
(1.00046 0.00133365 0)
(1.002 0.00204556 0)
(1.00297 0.000933762 0)
(1.00287 0.00278485 0)
(1.00387 0.000814433 0)
(1.0035 0.00322258 0)
(1.00329 0.000918173 0)
(1.00215 0.00393928 0)
(1.00112 0.00212698 0)
(0.99918 0.00589578 0)
(0.997574 0.00726365 0)
(0.998076 0.00210843 0)
(1.00172 -0.00292041 0)
(0.99924 0.00420798 0)
(1.00346 -0.00579949 0)
(0.997729 0.00503527 0)
(1.00456 -0.00444316 0)
(0.997884 0.00269917 0)
(1.00051 -0.000136673 0)
(1.00081 0.00115747 0)
(1.00086 0.00128866 0)
(1.00258 0.00200979 0)
(1.00324 0.000902454 0)
(1.00337 0.00274734 0)
(1.00423 0.000830677 0)
(1.00407 0.00316146 0)
(1.00386 0.00108039 0)
(1.00294 0.00381955 0)
(1.00201 0.0025668 0)
(1.00036 0.00581889 0)
(0.998962 0.00782364 0)
(0.999215 0.00209409 0)
(1.00122 -0.00289915 0)
(1.00033 0.00414471 0)
(1.00265 -0.00573294 0)
(0.998833 0.00495862 0)
(1.00425 -0.00436651 0)
(0.998856 0.00267872 0)
(1.00096 -0.000135894 0)
(1.00156 0.00113192 0)
(1.00132 0.00125629 0)
(1.00311 0.00196547 0)
(1.00356 0.00088484 0)
(1.00379 0.00268932 0)
(1.00455 0.00086755 0)
(1.0045 0.00306566 0)
(1.0043 0.00126959 0)
(1.00352 0.00367656 0)
(1.00267 0.00299593 0)
(1.00127 0.00578194 0)
(1.00005 0.00825706 0)
(0.999816 0.00207543 0)
(1.00088 -0.00287733 0)
(1.00098 0.00408177 0)
(1.00199 -0.00566095 0)
(0.99951 0.00486899 0)
(1.00395 -0.00427987 0)
(0.999524 0.00263721 0)
(1.00133 -0.000124025 0)
(1.00218 0.00109467 0)
(1.00178 0.00123642 0)
(1.00359 0.00190945 0)
(1.0039 0.00088414 0)
(1.00417 0.00260937 0)
(1.00484 0.000928104 0)
(1.00485 0.00294072 0)
(1.00464 0.00147785 0)
(1.00397 0.00353356 0)
(1.00318 0.00339096 0)
(1.00198 0.00580283 0)
(1.0009 0.00857341 0)
(1.00015 0.00205436 0)
(1.00065 -0.00285491 0)
(1.00137 0.0040181 0)
(1.00152 -0.00558261 0)
(0.999926 0.00476651 0)
(1.00371 -0.00418306 0)
(0.999975 0.00257375 0)
(1.00161 -0.000100973 0)
(1.00266 0.00104165 0)
(1.00217 0.0012312 0)
(1.00398 0.00183853 0)
(1.00421 0.000900911 0)
(1.00447 0.00250897 0)
(1.00509 0.00101107 0)
(1.00511 0.00279666 0)
(1.00489 0.00169338 0)
(1.00429 0.00341574 0)
(1.00355 0.00373546 0)
(1.00252 0.0058836 0)
(1.00156 0.00879476 0)
(1.00033 0.00203146 0)
(1.00052 -0.00283138 0)
(1.00159 0.00395214 0)
(1.00123 -0.00549712 0)
(1.00017 0.00465154 0)
(1.00353 -0.00407514 0)
(1.00027 0.00248866 0)
(1.00178 -6.52049e-05 0)
(1.00299 0.000970051 0)
(1.00246 0.00124206 0)
(1.00426 0.00175038 0)
(1.00445 0.000936115 0)
(1.00469 0.00239027 0)
(1.00526 0.0011113 0)
(1.0053 0.00264511 0)
(1.00506 0.00190199 0)
(1.00453 0.00333997 0)
(1.00382 0.00402705 0)
(1.00294 0.00601431 0)
(1.00208 0.00894857 0)
(1.00044 0.00200678 0)
(1.00046 -0.00280608 0)
(1.00169 0.00388231 0)
(1.00107 -0.00540359 0)
(1.00031 0.00452402 0)
(1.00341 -0.00395488 0)
(1.00047 0.00238271 0)
(1.00188 -1.51817e-05 0)
(1.0032 0.000878689 0)
(1.00265 0.00126957 0)
(1.00444 0.001643 0)
(1.0046 0.000988653 0)
(1.00483 0.00225522 0)
(1.00538 0.00122058 0)
(1.00543 0.00249955 0)
(1.00517 0.00208936 0)
(1.00472 0.00331145 0)
(1.00403 0.0042746 0)
(1.00329 0.00617737 0)
(1.00252 0.00905943 0)
(1.00049 0.00198025 0)
(1.00043 -0.00277835 0)
(1.00174 0.00380723 0)
(1.00099 -0.00530097 0)
(1.0004 0.00438328 0)
(1.00333 -0.00382093 0)
(1.00062 0.00225588 0)
(1.00191 5.20663e-05 0)
(1.00335 0.000765799 0)
(1.00276 0.00131401 0)
(1.00455 0.00151688 0)
(1.0047 0.00105378 0)
(1.00493 0.0021109 0)
(1.00544 0.00132736 0)
(1.00552 0.00237656 0)
(1.00525 0.00224432 0)
(1.00487 0.00332741 0)
(1.00422 0.00448867 0)
(1.0036 0.00635184 0)
(1.0029 0.00914226 0)
(1.00053 0.00195179 0)
(1.00041 -0.00274757 0)
(1.00175 0.00372568 0)
(1.00095 -0.00518845 0)
(1.00046 0.00422885 0)
(1.00326 -0.0036726 0)
(1.00074 0.00210879 0)
(1.0019 0.000136585 0)
(1.00345 0.000630719 0)
(1.00283 0.00137479 0)
(1.00461 0.00137504 0)
(1.00476 0.00112467 0)
(1.00499 0.00196829 0)
(1.00548 0.00141803 0)
(1.0056 0.00228933 0)
(1.00531 0.00236609 0)
(1.00501 0.00338027 0)
(1.00439 0.00468061 0)
(1.00389 0.00652173 0)
(1.00326 0.00920115 0)
(1.00055 0.00192124 0)
(1.00041 -0.00271289 0)
(1.00174 0.0036365 0)
(1.00093 -0.00506535 0)
(1.00051 0.00405974 0)
(1.00321 -0.00350836 0)
(1.00086 0.00194012 0)
(1.00188 0.000240535 0)
(1.00354 0.00047421 0)
(1.00287 0.00144915 0)
(1.00466 0.00122392 0)
(1.0048 0.0011923 0)
(1.00504 0.00183793 0)
(1.0055 0.0014778 0)
(1.00566 0.00223975 0)
(1.00536 0.00246421 0)
(1.00515 0.00345914 0)
(1.00457 0.00486543 0)
(1.00418 0.00668515 0)
(1.0036 0.00924029 0)
(1.00057 0.00188842 0)
(1.00041 -0.00267356 0)
(1.00173 0.0035387 0)
(1.00092 -0.0049305 0)
(1.00056 0.00387359 0)
(1.00315 -0.00332534 0)
(1.00098 0.00174683 0)
(1.00185 0.000365495 0)
(1.00362 0.000298849 0)
(1.00289 0.00153131 0)
(1.00468 0.00107199 0)
(1.00482 0.00124588 0)
(1.00507 0.0017325 0)
(1.00551 0.00149793 0)
(1.00572 0.00221783 0)
(1.00542 0.00255083 0)
(1.00529 0.00354822 0)
(1.00475 0.00505255 0)
(1.00446 0.00685112 0)
(1.00394 0.0092704 0)
(1.00058 0.00185313 0)
(1.00041 -0.00262885 0)
(1.00171 0.00343095 0)
(1.00092 -0.00478219 0)
(1.00061 0.00366797 0)
(1.00311 -0.00312295 0)
(1.00109 0.0015316 0)
(1.00181 0.000504024 0)
(1.00369 0.000110682 0)
(1.00292 0.00161361 0)
(1.0047 0.000927766 0)
(1.00484 0.00127147 0)
(1.0051 0.00166157 0)
(1.00553 0.00148274 0)
(1.00579 0.00220967 0)
(1.00548 0.00263834 0)
(1.00544 0.00363529 0)
(1.00494 0.00523838 0)
(1.00474 0.00702834 0)
(1.00428 0.00930455 0)
(1.00059 0.00181536 0)
(1.00042 -0.00257783 0)
(1.00169 0.00331141 0)
(1.00092 -0.00461965 0)
(1.00067 0.00344332 0)
(1.00306 -0.00290363 0)
(1.00121 0.00129737 0)
(1.00177 0.000656045 0)
(1.00375 -8.03798e-05 0)
(1.00294 0.00168743 0)
(1.00471 0.000804285 0)
(1.00487 0.00125674 0)
(1.00512 0.00162346 0)
(1.00555 0.00144369 0)
(1.00585 0.00220036 0)
(1.00555 0.00273297 0)
(1.0056 0.00371845 0)
(1.00515 0.00541333 0)
(1.00502 0.00721888 0)
(1.00461 0.00935726 0)
(1.00059 0.001775 0)
(1.00043 -0.00251904 0)
(1.00166 0.00317841 0)
(1.00092 -0.00444155 0)
(1.00071 0.00319922 0)
(1.00302 -0.00266681 0)
(1.00133 0.00104381 0)
(1.00174 0.000818724 0)
(1.00381 -0.000265898 0)
(1.00298 0.00174498 0)
(1.00472 0.00071048 0)
(1.00491 0.00120122 0)
(1.00514 0.00160884 0)
(1.00557 0.00139967 0)
(1.00593 0.00217597 0)
(1.00563 0.00283251 0)
(1.00577 0.00379335 0)
(1.00538 0.00556843 0)
(1.0053 0.00741235 0)
(1.00493 0.0094413 0)
(1.00057 0.00173039 0)
(1.00046 -0.00244906 0)
(1.00161 0.00302741 0)
(1.00094 -0.00424391 0)
(1.00076 0.00293004 0)
(1.00299 -0.00240902 0)
(1.00144 0.000769358 0)
(1.00172 0.000987072 0)
(1.00386 -0.000454362 0)
(1.00302 0.00177306 0)
(1.00471 0.000649506 0)
(1.00495 0.00110614 0)
(1.00515 0.00160484 0)
(1.0056 0.00135935 0)
(1.00601 0.00213121 0)
(1.00573 0.00292789 0)
(1.00594 0.00385216 0)
(1.00563 0.00568848 0)
(1.00559 0.00759063 0)
(1.00526 0.00956841 0)
(1.00054 0.00168417 0)
(1.0005 -0.00237106 0)
(1.00156 0.00286182 0)
(1.00096 -0.00403515 0)
(1.0008 0.00264738 0)
(1.00296 -0.00214777 0)
(1.00155 0.000497287 0)
(1.0017 0.00113819 0)
(1.00391 -0.00061616 0)
(1.00308 0.00173831 0)
(1.00468 0.000645183 0)
(1.005 0.000954022 0)
(1.00516 0.00161808 0)
(1.00563 0.00130009 0)
(1.0061 0.00207837 0)
(1.00584 0.00299202 0)
(1.00612 0.00389543 0)
(1.00591 0.00569486 0)
(1.00589 0.0077183 0)
(1.00558 0.00971704 0)
(1.0005 0.00163362 0)
(1.00055 -0.00227909 0)
(1.0015 0.00267796 0)
(1.00099 -0.00381145 0)
(1.00083 0.00234805 0)
(1.00294 -0.00187944 0)
(1.00164 0.000227367 0)
(1.00169 0.00126972 0)
(1.00393 -0.000734001 0)
(1.00315 0.00165517 0)
(1.00465 0.000676524 0)
(1.00506 0.000785905 0)
(1.00517 0.00162768 0)
(1.00567 0.0012562 0)
(1.00619 0.00199605 0)
(1.00596 0.00303251 0)
(1.0063 0.00390993 0)
(1.0062 0.00560684 0)
(1.00622 0.00769657 0)
(1.00592 0.00970602 0)
(1.00044 0.00157893 0)
(1.00061 -0.00217314 0)
(1.00142 0.0024757 0)
(1.00103 -0.00357153 0)
(1.00085 0.00202988 0)
(1.00292 -0.00160526 0)
(1.00173 -3.76326e-05 0)
(1.00169 0.0013786 0)
(1.00394 -0.000818777 0)
(1.00323 0.00154403 0)
(1.0046 0.000717023 0)
(1.00513 0.000634989 0)
(1.00518 0.00161393 0)
(1.0057 0.00126638 0)
(1.00628 0.00189414 0)
(1.0061 0.00306667 0)
(1.00647 0.00398838 0)
(1.00651 0.00558034 0)
(1.00657 0.00768244 0)
(1.0063 0.00974371 0)
(1.00038 0.00152245 0)
(1.00068 -0.00205625 0)
(1.00134 0.00226139 0)
(1.00106 -0.00332695 0)
(1.00087 0.00171489 0)
(1.0029 -0.00135536 0)
(1.00182 -0.000265223 0)
(1.0017 0.00143704 0)
(1.00394 -0.000853652 0)
(1.00333 0.00138984 0)
(1.00454 0.000788106 0)
(1.0052 0.000477136 0)
(1.0052 0.00158481 0)
(1.00572 0.00132507 0)
(1.00638 0.00185816 0)
(1.00626 0.00314787 0)
(1.00664 0.00419064 0)
(1.00682 0.00565425 0)
(1.00693 0.00772278 0)
(1.00669 0.00979898 0)
(1.00031 0.00146046 0)
(1.00074 -0.00192322 0)
(1.00126 0.00203099 0)
(1.0011 -0.00307326 0)
(1.00089 0.00139797 0)
(1.00289 -0.00112105 0)
(1.00189 -0.000467349 0)
(1.00172 0.0014619 0)
(1.00392 -0.000855393 0)
(1.00343 0.00121725 0)
(1.00447 0.000878729 0)
(1.00526 0.000350443 0)
(1.00523 0.0015422 0)
(1.00575 0.00146075 0)
(1.00649 0.00189219 0)
(1.00644 0.00327564 0)
(1.00682 0.00442299 0)
(1.00713 0.00579054 0)
(1.0073 0.0077589 0)
(1.00709 0.00983012 0)
(1.00024 0.00139823 0)
(1.0008 -0.00178558 0)
(1.00118 0.00179702 0)
(1.00113 -0.00282848 0)
(1.00091 0.00109657 0)
(1.00287 -0.000917959 0)
(1.00197 -0.000640501 0)
(1.00173 0.00145632 0)
(1.0039 -0.000827608 0)
(1.00354 0.00103346 0)
(1.00441 0.000984343 0)
(1.00532 0.000307263 0)
(1.00528 0.00153067 0)
(1.00579 0.00167426 0)
(1.00659 0.00197564 0)
(1.00665 0.00338168 0)
(1.00701 0.00463653 0)
(1.00742 0.00593544 0)
(1.00768 0.0077631 0)
(1.00749 0.00978681 0)
(1.00018 0.00133208 0)
(1.00084 -0.00163647 0)
(1.0011 0.00155905 0)
(1.00115 -0.00260162 0)
(1.00094 0.000818525 0)
(1.00285 -0.000755223 0)
(1.00205 -0.000785185 0)
(1.00175 0.00141713 0)
(1.00387 -0.000764133 0)
(1.00365 0.00084549 0)
(1.00435 0.00111244 0)
(1.00536 0.000348226 0)
(1.00535 0.00154514 0)
(1.00583 0.00191982 0)
(1.0067 0.00210577 0)
(1.00687 0.0034436 0)
(1.00721 0.00479906 0)
(1.00771 0.00605899 0)
(1.00805 0.00774018 0)
(1.0079 0.0096728 0)
(1.00012 0.00126504 0)
(1.00088 -0.00148354 0)
(1.00104 0.00132431 0)
(1.00116 -0.00239769 0)
(1.00097 0.000559182 0)
(1.00283 -0.000619804 0)
(1.00212 -0.000901645 0)
(1.00178 0.00137074 0)
(1.00383 -0.000667311 0)
(1.00376 0.000691334 0)
(1.00431 0.00125876 0)
(1.0054 0.000442548 0)
(1.00543 0.00153829 0)
(1.00587 0.00214175 0)
(1.00679 0.00225883 0)
(1.00709 0.00347203 0)
(1.00743 0.00489257 0)
(1.00799 0.00614964 0)
(1.00841 0.00769383 0)
(1.00831 0.0095084 0)
(1.00008 0.00119866 0)
(1.0009 -0.00133578 0)
(1.00098 0.00111302 0)
(1.00116 -0.00223405 0)
(1.00101 0.000324399 0)
(1.00279 -0.000523759 0)
(1.0022 -0.000990317 0)
(1.0018 0.00132057 0)
(1.00379 -0.000512193 0)
(1.00387 0.000592705 0)
(1.00428 0.00141691 0)
(1.00541 0.000577224 0)
(1.00553 0.00150428 0)
(1.00592 0.0023093 0)
(1.00687 0.00242116 0)
(1.00732 0.003484 0)
(1.00767 0.00492417 0)
(1.00827 0.0061973 0)
(1.00876 0.00762138 0)
(1.00871 0.00930573 0)
(1.00004 0.00113106 0)
(1.0009 -0.00118906 0)
(1.00092 0.000921868 0)
(1.00115 -0.00209964 0)
(1.00106 0.000104072 0)
(1.00276 -0.000449936 0)
(1.00227 -0.00106321 0)
(1.00183 0.00125954 0)
(1.00375 -0.000297981 0)
(1.00398 0.00053374 0)
(1.00427 0.00156201 0)
(1.00541 0.000752637 0)
(1.00564 0.00146556 0)
(1.00598 0.00242255 0)
(1.00694 0.00259638 0)
(1.00753 0.00350733 0)
(1.00792 0.00492579 0)
(1.00855 0.00621516 0)
(1.0091 0.00754002 0)
(1.0091 0.00909106 0)
(1.00001 0.00106729 0)
(1.00089 -0.00106015 0)
(1.00087 0.000766393 0)
(1.00113 -0.0019857 0)
(1.00111 -0.00011682 0)
(1.00271 -0.000384752 0)
(1.00235 -0.00110342 0)
(1.00187 0.00121888 0)
(1.00371 -4.66483e-05 0)
(1.00409 0.000492857 0)
(1.00427 0.00165677 0)
(1.00539 0.000949431 0)
(1.00574 0.00143807 0)
(1.00607 0.00248216 0)
(1.00701 0.00277091 0)
(1.00773 0.00355069 0)
(1.00818 0.00491381 0)
(1.00882 0.00621358 0)
(1.00942 0.00745878 0)
(1.00948 0.00887781 0)
(0.999988 0.00100694 0)
(1.00088 -0.000949778 0)
(1.00082 0.0006479 0)
(1.0011 -0.0018876 0)
(1.00117 -0.000319276 0)
(1.00268 -0.00033035 0)
(1.00243 -0.00109699 0)
(1.00193 0.00120021 0)
(1.00366 0.000210036 0)
(1.00419 0.000468673 0)
(1.00429 0.00169888 0)
(1.00536 0.00114705 0)
(1.00584 0.00143649 0)
(1.00617 0.00249673 0)
(1.00709 0.00292604 0)
(1.00792 0.00360812 0)
(1.00845 0.00489223 0)
(1.0091 0.00619175 0)
(1.00973 0.00737097 0)
(1.00984 0.00866014 0)
(0.999967 0.000946286 0)
(1.00086 -0.000851132 0)
(1.00077 0.000549874 0)
(1.00106 -0.00178234 0)
(1.00122 -0.000493281 0)
(1.00264 -0.000258808 0)
(1.0025 -0.00103955 0)
(1.00199 0.00116223 0)
(1.00361 0.000449769 0)
(1.00427 0.000460452 0)
(1.00432 0.00169665 0)
(1.00532 0.00133647 0)
(1.00592 0.0014707 0)
(1.00628 0.00249109 0)
(1.00717 0.0030542 0)
(1.00809 0.00367706 0)
(1.00872 0.00486469 0)
(1.00939 0.00614685 0)
(1.01003 0.00726893 0)
(1.01018 0.00843431 0)
(0.999948 0.000891878 0)
(1.00084 -0.000779899 0)
(1.00072 0.000482015 0)
(1.00101 -0.00165709 0)
(1.00129 -0.000651056 0)
(1.00262 -0.00017681 0)
(1.00258 -0.000945424 0)
(1.00207 0.00109493 0)
(1.00356 0.000667901 0)
(1.00433 0.000477268 0)
(1.00437 0.00165746 0)
(1.00528 0.00151069 0)
(1.00599 0.00153723 0)
(1.0064 0.00248242 0)
(1.00727 0.00314984 0)
(1.00826 0.00375108 0)
(1.00899 0.004833 0)
(1.00967 0.00607826 0)
(1.01032 0.00715328 0)
(1.01049 0.00820838 0)
(0.999932 0.000841593 0)
(1.00082 -0.000733999 0)
(1.00067 0.000432384 0)
(1.00096 -0.00149522 0)
(1.00135 -0.000779673 0)
(1.0026 -0.000110578 0)
(1.00264 -0.000830011 0)
(1.00215 0.00101166 0)
(1.00351 0.000855603 0)
(1.00438 0.000532825 0)
(1.00443 0.00160365 0)
(1.00525 0.00166803 0)
(1.00605 0.00163719 0)
(1.00653 0.0024825 0)
(1.00737 0.00321493 0)
(1.00842 0.00381791 0)
(1.00924 0.00479421 0)
(1.00995 0.00598338 0)
(1.0106 0.00702111 0)
(1.01079 0.00798386 0)
(0.999917 0.000794425 0)
(1.0008 -0.0007075 0)
(1.00064 0.000387515 0)
(1.00091 -0.00130071 0)
(1.00142 -0.00087455 0)
(1.0026 -6.31109e-05 0)
(1.00271 -0.000685622 0)
(1.00225 0.000932157 0)
(1.00347 0.00101328 0)
(1.00442 0.000628734 0)
(1.0045 0.00155267 0)
(1.00523 0.00179552 0)
(1.00609 0.00176041 0)
(1.00666 0.00249343 0)
(1.00749 0.0032533 0)
(1.00858 0.00386405 0)
(1.00949 0.00474261 0)
(1.01024 0.0058607 0)
(1.01088 0.00686629 0)
(1.01107 0.00775517 0)
(0.999905 0.000749673 0)
(1.00078 -0.0006913 0)
(1.00061 0.000339546 0)
(1.00085 -0.00108663 0)
(1.00148 -0.000929857 0)
(1.00261 -2.35743e-05 0)
(1.00276 -0.000515342 0)
(1.00235 0.0008681 0)
(1.00343 0.00114117 0)
(1.00444 0.000756499 0)
(1.00457 0.00151714 0)
(1.00523 0.00188522 0)
(1.00613 0.00188852 0)
(1.00679 0.00251605 0)
(1.00762 0.00327329 0)
(1.00873 0.00388903 0)
(1.00973 0.00468181 0)
(1.01052 0.00571978 0)
(1.01115 0.0066927 0)
(1.01133 0.00752466 0)
(0.999894 0.00070594 0)
(1.00076 -0.000683616 0)
(1.00059 0.000282086 0)
(1.00079 -0.000860641 0)
(1.00154 -0.000935323 0)
(1.00264 2.3833e-05 0)
(1.00282 -0.000325405 0)
(1.00245 0.000820657 0)
(1.00342 0.00123166 0)
(1.00445 0.000896095 0)
(1.00465 0.00150367 0)
(1.00524 0.00194345 0)
(1.00617 0.00200546 0)
(1.00691 0.0025503 0)
(1.00776 0.00328492 0)
(1.00888 0.00389939 0)
(1.00995 0.00461534 0)
(1.0108 0.00556441 0)
(1.01142 0.00649731 0)
(1.01158 0.00728456 0)
(0.999885 0.000661062 0)
(1.00074 -0.000673669 0)
(1.00059 0.000193391 0)
(1.00074 -0.000647867 0)
(1.00159 -0.000877287 0)
(1.00269 8.36607e-05 0)
(1.00288 -0.000123556 0)
(1.00255 0.000795743 0)
(1.00342 0.00128538 0)
(1.00446 0.0010263 0)
(1.00472 0.00150748 0)
(1.00527 0.00197674 0)
(1.0062 0.00209636 0)
(1.00703 0.00258304 0)
(1.0079 0.00328929 0)
(1.00903 0.00389851 0)
(1.01017 0.00454477 0)
(1.01107 0.00539637 0)
(1.0117 0.00627775 0)
(1.01183 0.00702805 0)
(0.999878 0.00062036 0)
(1.00072 -0.00066779 0)
(1.0006 7.09593e-05 0)
(1.00069 -0.000451565 0)
(1.00164 -0.000751663 0)
(1.00274 0.000152364 0)
(1.00293 9.33563e-05 0)
(1.00265 0.000814574 0)
(1.00343 0.00132563 0)
(1.00446 0.00115561 0)
(1.00479 0.00153815 0)
(1.00531 0.00200406 0)
(1.00625 0.00216353 0)
(1.00714 0.00260166 0)
(1.00805 0.00327856 0)
(1.00918 0.00388038 0)
(1.01036 0.00446399 0)
(1.01133 0.00521198 0)
(1.01197 0.00602686 0)
(1.01207 0.00674182 0)
(0.999873 0.000568287 0)
(1.00071 -0.00065273 0)
(1.00063 -9.47582e-05 0)
(1.00067 -0.000236657 0)
(1.0017 -0.000556127 0)
(1.00281 0.000249518 0)
(1.00299 0.000322931 0)
(1.00275 0.000880752 0)
(1.00346 0.00136145 0)
(1.00447 0.00128112 0)
(1.00486 0.00159952 0)
(1.00536 0.00204407 0)
(1.00629 0.00222777 0)
(1.00726 0.00261952 0)
(1.0082 0.00326413 0)
(1.00933 0.0038586 0)
(1.01054 0.00439036 0)
(1.01158 0.0050354 0)
(1.01223 0.00576826 0)
(1.01231 0.00644168 0)
(0.99987 0.000540061 0)
(1.00069 -0.000664563 0)
(1.00068 -0.000230935 0)
(1.00067 -7.15077e-06 0)
(1.00175 -0.000328418 0)
(1.00289 0.000346781 0)
(1.00305 0.000539072 0)
(1.00284 0.000983126 0)
(1.0035 0.00139505 0)
(1.0045 0.00138689 0)
(1.00493 0.00167229 0)
(1.00542 0.00208998 0)
(1.00635 0.00228457 0)
(1.00738 0.00262827 0)
(1.00836 0.00323001 0)
(1.00948 0.00381574 0)
(1.01071 0.00430961 0)
(1.0118 0.00486141 0)
(1.01249 0.00550238 0)
(1.01254 0.00612454 0)
(0.999869 0.000529767 0)
(1.00067 -0.000620564 0)
(1.00075 -0.000272786 0)
(1.0007 0.000180657 0)
(1.0018 -0.000135144 0)
(1.00298 0.000378827 0)
(1.00313 0.000700477 0)
(1.00292 0.00109171 0)
(1.00355 0.00142226 0)
(1.00453 0.00146157 0)
(1.00501 0.00173863 0)
(1.00548 0.00213833 0)
(1.0064 0.00233809 0)
(1.00749 0.00263039 0)
(1.00852 0.00317566 0)
(1.00964 0.00374683 0)
(1.01087 0.00421387 0)
(1.012 0.00468541 0)
(1.01273 0.00522905 0)
(1.01278 0.00578615 0)
(0.99987 0.000413934 0)
(1.00064 -0.00035826 0)
(1.00083 -0.000292869 0)
(1.00074 0.000237114 0)
(1.00183 -2.41771e-05 0)
(1.00306 0.000361535 0)
(1.00321 0.000817161 0)
(1.00299 0.00121557 0)
(1.00359 0.00146601 0)
(1.00457 0.00150707 0)
(1.00508 0.00177673 0)
(1.00554 0.00216375 0)
(1.00645 0.00236389 0)
(1.00759 0.00260003 0)
(1.00868 0.00307829 0)
(1.0098 0.00362831 0)
(1.01102 0.00408 0)
(1.01217 0.00449082 0)
(1.01293 0.0049438 0)
(1.013 0.00542802 0)
(0.999879 0.000415446 0)
(1.00061 -0.000334902 0)
(1.00087 -0.000279904 0)
(1.00078 0.000422076 0)
(1.00187 0.000208918 0)
(1.00316 0.000420305 0)
(1.00331 0.000938215 0)
(1.00306 0.00138091 0)
(1.00361 0.00156834 0)
(1.00459 0.00157773 0)
(1.00514 0.00183877 0)
(1.0056 0.00222534 0)
(1.00648 0.00242623 0)
(1.00766 0.00260285 0)
(1.00881 0.00300075 0)
(1.00995 0.00351389 0)
(1.01115 0.00395045 0)
(1.01231 0.00431388 0)
(1.01311 0.00468376 0)
(1.01319 0.00508715 0)
(0.999883 0.000428901 0)
(1.00059 -0.000335785 0)
(1.00098 -0.000258226 0)
(1.00085 0.000623586 0)
(1.00189 0.000475628 0)
(1.00323 0.000508147 0)
(1.00342 0.00103763 0)
(1.00314 0.00155464 0)
(1.00363 0.00171315 0)
(1.00463 0.00166881 0)
(1.00523 0.00190247 0)
(1.00567 0.00228932 0)
(1.00652 0.00249239 0)
(1.00773 0.00261441 0)
(1.00894 0.00291906 0)
(1.0101 0.00337727 0)
(1.01129 0.00379465 0)
(1.01244 0.00412384 0)
(1.01325 0.00442409 0)
(1.01335 0.00474713 0)
(0.999894 0.000340966 0)
(1.00056 -8.91803e-05 0)
(1.00106 -0.000241478 0)
(1.00093 0.000678953 0)
(1.00191 0.000676443 0)
(1.00331 0.000591589 0)
(1.00355 0.00109323 0)
(1.00323 0.00168606 0)
(1.00365 0.00184583 0)
(1.00465 0.00174328 0)
(1.0053 0.00191535 0)
(1.00574 0.00229674 0)
(1.00655 0.00250895 0)
(1.00777 0.0025966 0)
(1.00905 0.00280599 0)
(1.01025 0.00319347 0)
(1.01143 0.00358632 0)
(1.01255 0.00389487 0)
(1.01337 0.00414574 0)
(1.01349 0.00439908 0)
(0.999904 0.000316903 0)
(1.00053 0.000103581 0)
(1.00113 -0.000178263 0)
(1.00103 0.000747769 0)
(1.00192 0.000911335 0)
(1.00335 0.000731797 0)
(1.00368 0.00114358 0)
(1.00332 0.00179728 0)
(1.00365 0.0019906 0)
(1.00464 0.00184819 0)
(1.00536 0.00193502 0)
(1.00582 0.00229738 0)
(1.00657 0.00252936 0)
(1.00778 0.0025966 0)
(1.00912 0.00271418 0)
(1.01037 0.00300705 0)
(1.01155 0.0033535 0)
(1.01265 0.00363947 0)
(1.01345 0.00385294 0)
(1.01358 0.0040456 0)
(0.999918 0.000284409 0)
(1.00049 0.000258514 0)
(1.00118 -8.12423e-05 0)
(1.00113 0.000803232 0)
(1.00193 0.0011347 0)
(1.00338 0.000909506 0)
(1.0038 0.00121533 0)
(1.00342 0.00191073 0)
(1.00365 0.00216827 0)
(1.00461 0.00199538 0)
(1.0054 0.0019787 0)
(1.00588 0.00228323 0)
(1.00659 0.00253464 0)
(1.00777 0.00259073 0)
(1.00914 0.00262889 0)
(1.01045 0.00281304 0)
(1.01165 0.00309054 0)
(1.01272 0.00334691 0)
(1.01351 0.00353375 0)
(1.01364 0.00368068 0)
(0.999931 0.000291444 0)
(1.00045 0.000320951 0)
(1.00123 4.88947e-05 0)
(1.00125 0.000893743 0)
(1.00195 0.00138474 0)
(1.00339 0.00113544 0)
(1.00391 0.00131179 0)
(1.00354 0.00200096 0)
(1.00365 0.0023435 0)
(1.00455 0.00216369 0)
(1.00541 0.00205127 0)
(1.00594 0.00227093 0)
(1.00661 0.0025303 0)
(1.00774 0.00259204 0)
(1.00913 0.00257063 0)
(1.0105 0.00264654 0)
(1.01172 0.00283629 0)
(1.01279 0.00304441 0)
(1.01355 0.0032029 0)
(1.01367 0.00331262 0)
(0.999944 0.000266004 0)
(1.00042 0.000465667 0)
(1.00127 0.000191197 0)
(1.00137 0.000965484 0)
(1.00198 0.00161055 0)
(1.00337 0.00139723 0)
(1.004 0.00145241 0)
(1.00367 0.00209025 0)
(1.00367 0.00251844 0)
(1.00448 0.00235707 0)
(1.00539 0.0021583 0)
(1.00599 0.00226702 0)
(1.00664 0.00249794 0)
(1.0077 0.00255982 0)
(1.00908 0.0024963 0)
(1.01049 0.00247086 0)
(1.01176 0.00256275 0)
(1.01283 0.00269934 0)
(1.01357 0.00281982 0)
(1.01367 0.00289672 0)
(0.999958 0.000232555 0)
(1.00038 0.000633621 0)
(1.00129 0.000347451 0)
(1.00149 0.00104753 0)
(1.00202 0.00182094 0)
(1.00334 0.00169384 0)
(1.00407 0.00163465 0)
(1.00379 0.00218016 0)
(1.00369 0.00266262 0)
(1.00439 0.00255639 0)
(1.00532 0.00228564 0)
(1.006 0.00227592 0)
(1.00664 0.00243907 0)
(1.00764 0.00249174 0)
(1.00899 0.00240096 0)
(1.01042 0.00229682 0)
(1.01174 0.00228846 0)
(1.01283 0.00234325 0)
(1.01356 0.00241188 0)
(1.01364 0.00245441 0)
(0.99997 0.000266412 0)
(1.00035 0.000733039 0)
(1.00129 0.000537466 0)
(1.00161 0.00113258 0)
(1.00207 0.00197369 0)
(1.00329 0.00195775 0)
(1.00409 0.00181275 0)
(1.00391 0.0022543 0)
(1.00372 0.0027603 0)
(1.00429 0.0027415 0)
(1.00521 0.00243406 0)
(1.00596 0.00230997 0)
(1.00662 0.0023766 0)
(1.00757 0.00240423 0)
(1.00886 0.00228883 0)
(1.0103 0.00212369 0)
(1.01166 0.00201517 0)
(1.01278 0.00198112 0)
(1.01351 0.00198167 0)
(1.01358 0.00197938 0)
(0.999983 0.000238834 0)
(1.00031 0.000890209 0)
(1.00128 0.0007603 0)
(1.00171 0.00125484 0)
(1.00213 0.00214541 0)
(1.00324 0.00226352 0)
(1.00409 0.00208554 0)
(1.004 0.00240383 0)
(1.00375 0.00290342 0)
(1.00419 0.00295159 0)
(1.00506 0.00263897 0)
(1.00587 0.00239817 0)
(1.00656 0.00235036 0)
(1.00747 0.00231868 0)
(1.0087 0.00217146 0)
(1.01012 0.00194582 0)
(1.0115 0.00174708 0)
(1.01266 0.00161614 0)
(1.0134 0.00154053 0)
(1.01347 0.00148198 0)
(0.999992 0.000263568 0)
(1.00029 0.000961025 0)
(1.00124 0.000989495 0)
(1.0018 0.00141643 0)
(1.0022 0.00231817 0)
(1.00318 0.00256081 0)
(1.00404 0.00238873 0)
(1.00405 0.0025781 0)
(1.00378 0.00303571 0)
(1.00407 0.00313644 0)
(1.00486 0.00284174 0)
(1.0057 0.00250723 0)
(1.00644 0.00234003 0)
(1.00732 0.00222403 0)
(1.00849 0.00203027 0)
(1.00988 0.00174494 0)
(1.01127 0.00146414 0)
(1.01245 0.00123648 0)
(1.01323 0.00107876 0)
(1.01331 0.00095666 0)
(1 0.000319002 0)
(1.00026 0.00100701 0)
(1.00121 0.00122533 0)
(1.00187 0.00159431 0)
(1.00227 0.00246639 0)
(1.00312 0.00283489 0)
(1.00397 0.00269855 0)
(1.00407 0.00278942 0)
(1.0038 0.00317737 0)
(1.00396 0.00331478 0)
(1.00464 0.00305138 0)
(1.00548 0.00264999 0)
(1.00625 0.00236309 0)
(1.00712 0.00214139 0)
(1.00823 0.00187752 0)
(1.00958 0.00152637 0)
(1.01096 0.00116173 0)
(1.01217 0.00083684 0)
(1.01297 0.00058797 0)
(1.01308 0.000395973 0)
(1.00001 0.000322533 0)
(1.00025 0.00114856 0)
(1.00117 0.00147943 0)
(1.00191 0.00181484 0)
(1.00234 0.00265198 0)
(1.00307 0.00312916 0)
(1.00386 0.00306313 0)
(1.00405 0.00307387 0)
(1.00379 0.00337684 0)
(1.00384 0.00351982 0)
(1.00439 0.00328473 0)
(1.00519 0.00283622 0)
(1.00598 0.00243294 0)
(1.00684 0.00208779 0)
(1.0079 0.00172796 0)
(1.00919 0.00129544 0)
(1.01055 0.000837404 0)
(1.01178 0.000410048 0)
(1.01263 5.78358e-05 0)
(1.01277 -0.000221724 0)
(1.00001 0.000361049 0)
(1.00023 0.00128238 0)
(1.00111 0.00172641 0)
(1.00193 0.00206306 0)
(1.0024 0.0028374 0)
(1.00302 0.00339121 0)
(1.00373 0.00341936 0)
(1.00397 0.00339452 0)
(1.00375 0.00360705 0)
(1.00369 0.0037468 0)
(1.0041 0.00353315 0)
(1.00482 0.00306003 0)
(1.00561 0.00254895 0)
(1.00646 0.0020684 0)
(1.00748 0.00158878 0)
(1.0087 0.00104686 0)
(1.01003 0.000481902 0)
(1.01127 -6.64434e-05 0)
(1.01215 -0.000537823 0)
(1.01234 -0.000928683 0)
(1.00001 0.000414354 0)
(1.00022 0.00136567 0)
(1.00105 0.00195134 0)
(1.00191 0.00233236 0)
(1.00243 0.00304346 0)
(1.00296 0.00364172 0)
(1.00359 0.00378699 0)
(1.00385 0.00376248 0)
(1.00366 0.00390726 0)
(1.00352 0.00401888 0)