/*--------------------------------*- C++ -*----------------------------------*\
| =========                 |                                                 |
| \\      /  F ield         | OpenFOAM: The Open Source CFD Toolbox           |
|  \\    /   O peration     | Version:  v2012                                 |
|   \\  /    A nd           | Website:  www.openfoam.com                      |
|    \\/     M anipulation  |                                                 |
\*---------------------------------------------------------------------------*/
FoamFile
{
    version     2.0;
    format      ascii;
    class       volScalarField;
    location    "4.6";
    object      p;
}
// * * * * * * * * * * * * * * * * * * * * * * * * * * * * * * * * * * * * * //

dimensions      [0 2 -2 0 0 0 0];


internalField   nonuniform List<scalar> 
17600
(
4.39504e-11
0.000466622
-0.000552935
-0.00100832
-0.000784218
-0.00127447
-0.00181547
-0.0021712
-0.00251938
-0.00300177
-0.0030553
-0.00337074
-0.00314145
-0.00365387
-0.00313322
-0.00311798
-0.00195533
-0.000740463
0.0015002
0.00521555
9.52318e-07
0.00046638
-0.000552072
-0.00101023
-0.000784107
-0.00127643
-0.00181519
-0.0021732
-0.00251866
-0.00300453
-0.00305408
-0.00337555
-0.00313911
-0.00366322
-0.00312868
-0.00313597
-0.00194502
-0.000782882
0.00152195
0.00496313
2.7169e-06
0.0004656
-0.000551285
-0.00101277
-0.000783872
-0.00127934
-0.0018146
-0.00217617
-0.00251779
-0.00300903
-0.00305307
-0.00338341
-0.00313768
-0.0036777
-0.00312497
-0.00316119
-0.00193427
-0.000838029
0.00153088
0.00455487
5.34857e-06
0.000464275
-0.000551171
-0.00101488
-0.000783887
-0.00128238
-0.00181399
-0.00217932
-0.0025173
-0.00301425
-0.00305305
-0.00339253
-0.0031382
-0.0036933
-0.00312439
-0.00318479
-0.00192949
-0.000887398
0.00150451
0.00415363
9.23789e-06
0.000462287
-0.000551647
-0.00101668
-0.000784271
-0.00128557
-0.00181337
-0.00218266
-0.00251705
-0.00302008
-0.00305336
-0.0034025
-0.00313884
-0.00370973
-0.00312397
-0.00320768
-0.00192837
-0.000934034
0.00144128
0.00378042
1.45552e-05
0.000459491
-0.000552608
-0.00101836
-0.000784936
-0.00128894
-0.00181267
-0.0021862
-0.00251679
-0.00302639
-0.00305347
-0.00341296
-0.00313903
-0.0037268
-0.00312328
-0.00323101
-0.00193072
-0.00098166
0.00134335
0.00343495
2.11476e-05
0.000455849
-0.00055394
-0.00102006
-0.000785709
-0.00129244
-0.00181178
-0.00218989
-0.00251639
-0.00303306
-0.00305335
-0.00342371
-0.00313925
-0.00374409
-0.0031241
-0.00325393
-0.0019395
-0.00103095
0.00121339
0.00310903
2.87103e-05
0.000451457
-0.000555488
-0.00102185
-0.000786421
-0.00129606
-0.0018107
-0.00219373
-0.00251586
-0.00304011
-0.00305312
-0.00343479
-0.00313998
-0.00376142
-0.00312795
-0.00327507
-0.00195836
-0.00108082
0.00105342
0.00279421
3.69674e-05
0.000446478
-0.000557131
-0.00102378
-0.000786961
-0.0012998
-0.00180945
-0.00219775
-0.00251525
-0.00304756
-0.0030529
-0.0034462
-0.00314155
-0.00377858
-0.00313574
-0.00329361
-0.00198963
-0.00113063
0.000865228
0.0024829
4.57493e-05
0.000441063
-0.000558805
-0.00102589
-0.000787285
-0.00130369
-0.00180805
-0.00220199
-0.00251462
-0.00305542
-0.00305283
-0.00345779
-0.00314437
-0.00379505
-0.00314842
-0.00330918
-0.00203431
-0.00118088
0.000651614
0.00216862
5.49866e-05
0.000435319
-0.000560475
-0.00102823
-0.000787392
-0.00130774
-0.00180655
-0.00220645
-0.00251404
-0.0030636
-0.00305306
-0.0034693
-0.00314896
-0.00381015
-0.00316706
-0.00332159
-0.002093
-0.00123355
0.000417311
0.00184633
6.46712e-05
0.000429308
-0.000562115
-0.00103083
-0.00078729
-0.00131193
-0.00180497
-0.0022111
-0.00251358
-0.00307198
-0.00305381
-0.00348037
-0.00315596
-0.00382323
-0.00319266
-0.00333081
-0.00216621
-0.0012926
0.000168731
0.00151306
7.48221e-05
0.000423063
-0.000563697
-0.00103371
-0.000786989
-0.00131625
-0.00180337
-0.0022159
-0.00251332
-0.00308038
-0.00305537
-0.00349052
-0.00316607
-0.00383375
-0.00322602
-0.00333742
-0.00225345
-0.00136227
-8.79063e-05
0.00116769
8.54643e-05
0.000416597
-0.00056519
-0.00103688
-0.000786499
-0.00132065
-0.00180179
-0.00222079
-0.00251341
-0.00308859
-0.00305809
-0.00349933
-0.00317988
-0.00384144
-0.00326748
-0.00334286
-0.00235309
-0.00144677
-0.000347952
0.000810625
9.66185e-05
0.00040992
-0.00056656
-0.00104038
-0.000785836
-0.00132508
-0.0018003
-0.00222567
-0.00251401
-0.0030963
-0.00306235
-0.0035064
-0.00319785
-0.00384644
-0.00331672
-0.00334934
-0.00246292
-0.00154941
-0.000608706
0.000443696
0.000108299
0.000403044
-0.000567771
-0.00104419
-0.000785029
-0.00132947
-0.001799
-0.00223038
-0.00251537
-0.00310321
-0.00306851
-0.00351146
-0.00322028
-0.0038492
-0.00337312
-0.00335945
-0.00258032
-0.00167242
-0.000869324
6.95602e-05
0.000120511
0.000395993
-0.000568793
-0.00104831
-0.000784127
-0.00133374
-0.00179806
-0.00223473
-0.00251774
-0.00310905
-0.00307689
-0.00351434
-0.00324725
-0.00385051
-0.00343601
-0.00337763
-0.00270305
-0.00181676
-0.00113027
-0.00030889
0.00013325
0.000388806
-0.000569598
-0.00105269
-0.000783205
-0.00133775
-0.00179763
-0.00223853
-0.00252133
-0.00311356
-0.00308772
-0.00351507
-0.00327857
-0.00385159
-0.00350424
-0.00340582
-0.00283021
-0.00198207
-0.00139295
-0.000688832
0.000146502
0.000381543
-0.000570167
-0.00105729
-0.000782369
-0.00134135
-0.00179791
-0.00224155
-0.0025264
-0.00311654
-0.00310107
-0.00351401
-0.0033136
-0.00385412
-0.00357659
-0.003446
-0.00296183
-0.00216694
-0.00165904
-0.00106765
0.000160235
0.000374292
-0.000570496
-0.00106203
-0.000781767
-0.00134436
-0.00179914
-0.00224356
-0.00253312
-0.00311793
-0.00311678
-0.00351182
-0.00335142
-0.00385997
-0.00365229
-0.00349946
-0.00309853
-0.00236955
-0.0019301
-0.00144328
0.000174398
0.00036718
-0.000570594
-0.00106678
-0.000781568
-0.00134657
-0.00180154
-0.00224438
-0.00254153
-0.00311785
-0.00313452
-0.00350926
-0.00339105
-0.00387065
-0.00373098
-0.00356717
-0.00324184
-0.00258837
-0.00220736
-0.00181426
0.000188913
0.000360376
-0.000570475
-0.00107142
-0.000781966
-0.0013478
-0.00180532
-0.00224392
-0.00255149
-0.00311665
-0.0031537
-0.00350727
-0.00343179
-0.00388699
-0.00381287
-0.00365001
-0.00339408
-0.00282251
-0.00249162
-0.00217944
0.000203672
0.00035409
-0.000570173
-0.00107578
-0.000783178
-0.00134788
-0.00181058
-0.00224223
-0.00256267
-0.00311492
-0.00317354
-0.00350656
-0.00347327
-0.00390921
-0.00389857
-0.00374851
-0.00355774
-0.00307196
-0.00278375
-0.00253833
0.000218524
0.000348614
-0.000569746
-0.0010797
-0.000785393
-0.00134671
-0.00181731
-0.00223952
-0.00257461
-0.00311323
-0.00319342
-0.00350753
-0.00351534
-0.00393749
-0.0039886
-0.0038625
-0.003735
-0.00333771
-0.00308599
-0.0028921
0.000233311
0.000344312
-0.000569231
-0.00108308
-0.000788741
-0.0013443
-0.00182532
-0.0022363
-0.00258666
-0.00311227
-0.0032127
-0.00351048
-0.00355761
-0.00397207
-0.00408313
-0.00399069
-0.00392714
-0.00362221
-0.00340477
-0.00324515
0.000247838
0.000341578
-0.000568642
-0.0010859
-0.000793313
-0.00134082
-0.00183418
-0.00223306
-0.00259809
-0.00311264
-0.00323092
-0.00351542
-0.0035999
-0.00401263
-0.00418181
-0.0041288
-0.0041276
-0.00392617
-0.00375674
-0.00360673
0.000261799
0.000340845
-0.000567937
-0.0010881
-0.000799021
-0.00133664
-0.00184341
-0.00223111
-0.00260817
-0.00311448
-0.00324826
-0.00352169
-0.00364299
-0.00405804
-0.00428407
-0.00427539
-0.00433436
-0.00423725
-0.00412041
-0.00401445
0.000274879
0.000342613
-0.000566966
-0.00108984
-0.000805589
-0.00133245
-0.00185233
-0.00223061
-0.00261649
-0.00311752
-0.00326526
-0.00352903
-0.00368771
-0.00410892
-0.00439099
-0.00444072
-0.00455922
-0.00455801
-0.00450135
-0.00442747
0.000286737
0.000347372
-0.00056542
-0.00109144
-0.000812654
-0.001329
-0.00186047
-0.00223166
-0.00262327
-0.00312077
-0.00328309
-0.00353749
-0.00373589
-0.00417486
-0.00451216
-0.00462003
-0.00479398
-0.00488619
-0.00489567
-0.00484207
0.000296976
0.000355516
-0.000562793
-0.00109337
-0.000819537
-0.0013271
-0.00186761
-0.00223408
-0.00262952
-0.00312365
-0.00330452
-0.00355473
-0.00379116
-0.00425368
-0.00464357
-0.00480825
-0.00503292
-0.00521604
-0.00529657
-0.00525803
0.000305286
0.000367379
-0.000558462
-0.00109616
-0.000825502
-0.00132713
-0.00187377
-0.00223745
-0.00263694
-0.00312763
-0.00333199
-0.00358285
-0.0038509
-0.00433831
-0.00478179
-0.00500486
-0.00527586
-0.00554414
-0.00569957
-0.00567599
0.000311406
0.000383087
-0.000551472
-0.00110047
-0.000830164
-0.00132911
-0.00188015
-0.00224113
-0.00264809
-0.00313697
-0.00336452
-0.00361813
-0.00391326
-0.00442532
-0.0049249
-0.00521151
-0.0055265
-0.00587001
-0.00610028
-0.00609485
0.000315127
0.000402472
-0.000540401
-0.00110693
-0.000833471
-0.00133271
-0.00188831
-0.00224533
-0.00266546
-0.00315291
-0.00339825
-0.00365818
-0.00397876
-0.00451483
-0.00507153
-0.00542817
-0.00578783
-0.00619476
-0.00649368
-0.00651045
0.000316362
0.000425087
-0.000523619
-0.00111576
-0.000836111
-0.0013371
-0.00190042
-0.0022537
-0.00268968
-0.00317299
-0.00343038
-0.00370131
-0.00404912
-0.00460841
-0.00522033
-0.00565248
-0.00606065
-0.00651952
-0.0068769
-0.00691813
0.000315163
0.000450145
-0.000499673
-0.00112632
-0.000839266
-0.00134229
-0.0019206
-0.00226792
-0.00271804
-0.00319699
-0.00345994
-0.0037457
-0.00412543
-0.00470789
-0.00537016
-0.00588093
-0.00634377
-0.00684566
-0.0072499
-0.00731444
0.000311827
0.000476498
-0.000467561
-0.00113751
-0.00084402
-0.00134921
-0.00195174
-0.00228697
-0.00274674
-0.0032247
-0.00348784
-0.00379012
-0.00420827
-0.00481522
-0.00552047
-0.00610956
-0.00663409
-0.00717492
-0.00761486
-0.00769789
0.000306846
0.000502887
-0.000426819
-0.0011484
-0.000852361
-0.00135849
-0.00199234
-0.00231026
-0.00277376
-0.00325688
-0.00351696
-0.00383387
-0.00429692
-0.00493212
-0.00567201
-0.00633463
-0.00692719
-0.00750838
-0.00797526
-0.00806924
0.000300772
0.000528127
-0.00037807
-0.00115792
-0.000866124
-0.00136952
-0.0020403
-0.00233858
-0.00279847
-0.00329392
-0.00355034
-0.00387621
-0.00438855
-0.00505928
-0.00582727
-0.00655381
-0.00721798
-0.00784507
-0.00833424
-0.00843078
0.000294329
0.000551135
-0.000323008
-0.00116501
-0.000885978
-0.00138135
-0.00209446
-0.00237354
-0.00282038
-0.00333467
-0.00359044
-0.00391736
-0.00447917
-0.00519588
-0.00599021
-0.00676757
-0.00750146
-0.00818089
-0.00869252
-0.00878487
0.000288402
0.000570926
-0.00026367
-0.00116869
-0.000911772
-0.00139381
-0.00215373
-0.00241665
-0.00283925
-0.00337689
-0.0036394
-0.00395948
-0.00456551
-0.00533921
-0.00616411
-0.00697954
-0.00777433
-0.00850964
-0.00904772
-0.00913298
0.000283879
0.000586575
-0.000202325
-0.00116794
-0.000943591
-0.00140746
-0.00221626
-0.00246881
-0.00285557
-0.00341784
-0.00369828
-0.00400567
-0.00464581
-0.00548487
-0.00634933
-0.00719415
-0.00803628
-0.00882571
-0.00939552
-0.0094754
0.000281448
0.000597733
-0.000141285
-0.00116253
-0.000981605
-0.00142467
-0.00227957
-0.00253031
-0.00287101
-0.0034548
-0.00376628
-0.0040592
-0.00471984
-0.00562744
-0.00654307
-0.00741433
-0.00828952
-0.00912572
-0.009731
-0.00981097
0.000281566
0.000604597
-8.21105e-05
-0.00115359
-0.00102592
-0.00144283
-0.00234043
-0.0026001
-0.00288795
-0.00348575
-0.00384142
-0.0041237
-0.00478947
-0.00576172
-0.00674027
-0.00764111
-0.00853724
-0.00940845
-0.0100493
-0.0101366
0.000285473
0.00060755
-2.65688e-05
-0.0011445
-0.00108086
-0.00146275
-0.00239219
-0.00267638
-0.00290925
-0.0035093
-0.0039204
-0.00420228
-0.00485871
-0.00588415
-0.00693462
-0.0078735
-0.0087828
-0.00967512
-0.010347
-0.0104478
0.000293959
0.000609521
2.43132e-05
-0.00114215
-0.00115409
-0.00148182
-0.00242997
-0.00275694
-0.00293805
-0.00352499
-0.00399845
-0.00429517
-0.00493211
-0.00599354
-0.00711985
-0.00810853
-0.00902918
-0.00992915
-0.0106229
-0.0107399
0.000308028
0.000615205
6.85761e-05
-0.00115717
-0.00124643
-0.00150096
-0.0024511
-0.00283856
-0.00297669
-0.00353397
-0.00406963
-0.00439944
-0.00501366
-0.00609108
-0.00729027
-0.00834043
-0.00927674
-0.010174
-0.0108774
-0.0110087
0.000328383
0.000623685
9.88667e-05
-0.00117238
-0.00134565
-0.00152754
-0.00245916
-0.00291782
-0.00302715
-0.00353969
-0.0041301
-0.0045104
-0.00510648
-0.00618122
-0.00744243
-0.00856216
-0.00952356
-0.0104133
-0.0111134
-0.0112525
0.000344274
0.000624313
0.000130167
-0.00117452
-0.00145009
-0.00156963
-0.00246165
-0.00299323
-0.00309206
-0.00354723
-0.00417792
-0.00462179
-0.00521095
-0.00626913
-0.00757481
-0.00876609
-0.00976471
-0.010649
-0.0113355
-0.0114732
0.000356946
0.000579559
0.000162442
-0.00116421
-0.00155949
-0.0016287
-0.00245972
-0.00306081
-0.00316968
-0.00356094
-0.00421053
-0.00472554
-0.00532499
-0.00635971
-0.00768924
-0.00894624
-0.00999219
-0.0108784
-0.0115462
-0.0116729
0.000381338
0.00057777
0.000155001
-0.00116973
-0.00166407
-0.0017009
-0.00245256
-0.00311397
-0.00325498
-0.00358345
-0.0042286
-0.00481442
-0.00544411
-0.00645641
-0.00778983
-0.00910017
-0.0101985
-0.0110962
-0.0117455
-0.0118539
0.000402766
0.000546517
0.000143323
-0.00116482
-0.00176514
-0.00178817
-0.00244741
-0.00315362
-0.00334484
-0.00361785
-0.00423679
-0.00488403
-0.00555936
-0.00655645
-0.00787949
-0.00922733
-0.0103776
-0.0112964
-0.0119325
-0.0120192
0.000412986
0.000521363
0.000131018
-0.00115224
-0.00186378
-0.00189285
-0.00245086
-0.00317941
-0.00343376
-0.00366601
-0.00424112
-0.00493346
-0.00566231
-0.00665511
-0.00796136
-0.00933159
-0.0105282
-0.0114744
-0.0121044
-0.0121697
0.000416745
0.00046935
0.000111872
-0.00113764
-0.00195817
-0.00201326
-0.00246605
-0.00319093
-0.00351554
-0.00372706
-0.00424741
-0.00496126
-0.00574384
-0.00674531
-0.00803483
-0.00941573
-0.01065
-0.0116257
-0.0122558
-0.0123023
0.00041787
0.000426967
7.26399e-05
-0.00113019
-0.0020431
-0.00214611
-0.00249664
-0.00318913
-0.0035821
-0.00379607
-0.00425862
-0.00496755
-0.00579565
-0.00681762
-0.00809628
-0.00947992
-0.0107427
-0.0117466
-0.0123815
-0.0124131
0.000416821
0.000384351
8.99335e-06
-0.00113265
-0.00211713
-0.00228625
-0.00254375
-0.0031776
-0.00362772
-0.00386555
-0.00427723
-0.00495882
-0.00581554
-0.00686376
-0.00813982
-0.00952233
-0.0108051
-0.0118337
-0.0124761
-0.0124974
0.00039933
0.000310623
-6.41784e-05
-0.00114258
-0.00218027
-0.00242915
-0.00261082
-0.00316389
-0.00365125
-0.00392767
-0.00430227
-0.00494107
-0.00580394
-0.0068753
-0.00815585
-0.00953761
-0.010834
-0.0118823
-0.0125351
-0.0125511
0.000372067
0.000242247
-0.000149565
-0.00116528
-0.00223572
-0.00257093
-0.00269861
-0.00315547
-0.00365321
-0.00397297
-0.00432657
-0.00491611
-0.0057633
-0.00684682
-0.00813467
-0.0095178
-0.0108242
-0.011889
-0.012554
-0.0125706
0.000328469
0.000185914
-0.000247761
-0.00120354
-0.00228625
-0.00270716
-0.00280373
-0.0031579
-0.00363687
-0.00399373
-0.00434102
-0.00488284
-0.00569661
-0.00677519
-0.00806656
-0.00945259
-0.0107682
-0.0118498
-0.0125289
-0.0125516
0.00026442
7.53196e-05
-0.000347619
-0.00125834
-0.00233517
-0.00283428
-0.00292138
-0.00317405
-0.00360695
-0.0039862
-0.00433689
-0.00483715
-0.00560457
-0.00665846
-0.0079426
-0.00933115
-0.0106583
-0.0117588
-0.0124547
-0.0124873
0.00019474
3.42596e-06
-0.00049238
-0.00134407
-0.0023871
-0.00295037
-0.0030463
-0.00320583
-0.00357001
-0.00395111
-0.00430631
-0.00477091
-0.00548289
-0.00649281
-0.00775479
-0.0091415
-0.0104818
-0.0116044
-0.0123226
-0.0123704
0.000100898
-0.000120775
-0.000640323
-0.00145118
-0.00244603
-0.00305482
-0.00317402
-0.00325459
-0.00353224
-0.00388942
-0.00424074
-0.00467239
-0.00532384
-0.00627322
-0.00749663
-0.00887227
-0.0102248
-0.0113726
-0.0121213
-0.0121979
-2.59001e-05
-0.000245071
-0.000799204
-0.00157828
-0.00251749
-0.00315109
-0.00330233
-0.00332067
-0.00349886
-0.00380326
-0.00413483
-0.00453133
-0.00511856
-0.00599409
-0.00715961
-0.00850777
-0.00986566
-0.0110408
-0.0118233
-0.0119299
-0.00018343
-0.00040891
-0.000961643
-0.0017244
-0.00260605
-0.00324612
-0.00343169
-0.00340497
-0.00347617
-0.00369758
-0.00398666
-0.00433897
-0.00485417
-0.00564148
-0.00672579
-0.00802297
-0.00937045
-0.0105714
-0.0113953
-0.011552
-0.000367831
-0.000576969
-0.0011546
-0.00189513
-0.00271402
-0.00334762
-0.00356504
-0.00350859
-0.00347338
-0.00358307
-0.0037987
-0.00408795
-0.0045179
-0.00519517
-0.00616838
-0.00738495
-0.00870178
-0.00992003
-0.0107998
-0.0110334
-0.000584024
-0.000778156
-0.00135804
-0.00208311
-0.00283938
-0.00346133
-0.00370652
-0.00363025
-0.00350187
-0.00348431
-0.00358809
-0.00377946
-0.00409576
-0.00463315
-0.00545928
-0.00655609
-0.00781154
-0.00903955
-0.00998858
-0.0103308
-0.000864072
-0.00101435
-0.00156574
-0.00223298
-0.00296205
-0.00359133
-0.00385858
-0.0037669
-0.00356051
-0.00342489
-0.00338349
-0.00342432
-0.00357376
-0.00391943
-0.00454931
-0.00547296
-0.00662317
-0.00784011
-0.00887284
-0.00937508
-0.00121003
-0.00145159
-0.00179967
-0.0023209
-0.00307678
-0.00373377
-0.00399797
-0.00389221
-0.0036378
-0.00341399
-0.00323294
-0.00305861
-0.00295112
-0.00300066
-0.00332488
-0.00399023
-0.00495526
-0.00610508
-0.00724563
-0.00801327
-0.00148964
-0.00160404
-0.00213225
-0.00276781
-0.00339299
-0.00389075
-0.00410793
-0.00399948
-0.00371591
-0.00345426
-0.00320316
-0.00285114
-0.00235069
-0.00185645
-0.00160872
-0.00175979
-0.00231989
-0.00317966
-0.00418611
-0.00513606
-0.00184404
-0.00197051
-0.00251369
-0.00315924
-0.00368915
-0.00404826
-0.00419285
-0.00409069
-0.00378812
-0.00343994
-0.00326231
-0.00307469
-0.00233398
-0.00123123
-0.000368257
3.56108e-05
0.000129783
0.000184164
0.000369224
0.000618348
-0.00230644
-0.00245268
-0.00290024
-0.00348918
-0.00394097
-0.00419737
-0.0042569
-0.00416059
-0.00393027
-0.00321277
-0.00218815
-0.00124934
-0.000453144
0.000230141
0.000833369
0.00142263
0.00207177
0.00277756
0.00340221
0.00359923
-0.00283144
-0.00295758
-0.00336421
-0.00383627
-0.00414091
-0.00429574
-0.00429201
-0.00375247
-0.00288824
-0.00202889
-0.00131629
-0.000728461
-0.000169339
0.00051277
0.00138523
0.00238842
0.00342233
0.00435964
0.0050071
0.00504195
-0.00348418
-0.00351342
-0.0038342
-0.00418206
-0.00425491
-0.00389826
-0.00340277
-0.00286361
-0.00231537
-0.00178551
-0.00123153
-0.0005954
0.000176839
0.00111999
0.00221903
0.0034026
0.00457083
0.0055772
0.00619941
0.00611844
-0.00431256
-0.00437796
-0.00417172
-0.00392204
-0.00364754
-0.00331868
-0.0029728
-0.00262728
-0.00221055
-0.00167666
-0.00100786
-0.000200674
0.000746064
0.00182555
0.00300836
0.00424676
0.00543989
0.00643614
0.00701586
0.00685897
-0.00500011
-0.00491873
-0.00442076
-0.00383325
-0.00336173
-0.00301735
-0.00272422
-0.00240608
-0.00197774
-0.00138208
-0.000623439
0.000275021
0.00129774
0.00242508
0.00363959
0.0048886
0.00607678
0.00705453
0.00759948
0.00738856
-0.00552243
-0.005339
-0.00471021
-0.00393465
-0.00327033
-0.00279349
-0.00243861
-0.00208275
-0.00162776
-0.00101836
-0.000243274
0.000683867
0.0017372
0.0028979
0.00413549
0.00539358
0.00657656
0.0075356
0.00804831
0.00779192
-0.00597006
-0.00571261
-0.00498013
-0.00405313
-0.00321864
-0.00259955
-0.00214857
-0.0017488
-0.00128655
-0.000684051
8.88099e-05
0.00102464
0.00210083
0.00328774
0.00454387
0.0058073
0.00698165
0.00791964
0.008401
0.00810523
-0.00635192
-0.00604264
-0.00520051
-0.00415273
-0.0031851
-0.00244316
-0.00190678
-0.00146364
-0.000989546
-0.000392168
0.000374512
0.00131515
0.00240667
0.00361074
0.00487833
0.00614274
0.00730664
0.00822435
0.00867822
0.00835039
-0.00665435
-0.0062931
-0.0053869
-0.00424594
-0.00317283
-0.00233251
-0.00172252
-0.00123626
-0.000743781
-0.000143503
0.000620021
0.00155908
0.00265413
0.00386621
0.00513944
0.0064028
0.00755751
0.00845883
0.0088913
0.0085394
-0.00688024
-0.00649035
-0.00553318
-0.00432976
-0.003185
-0.00227438
-0.00160577
-0.00107587
-0.000553254
6.67908e-05
0.000841192
0.00178464
0.0028802
0.00408982
0.00535962
0.00661731
0.00776229
0.00864993
0.00906606
0.00869642
-0.00702183
-0.00662346
-0.00564345
-0.00440809
-0.00322658
-0.00227798
-0.00157356
-0.00101093
-0.000461585
0.000179019
0.000972027
0.00193363
0.0030451
0.00426557
0.00553866
0.00679181
0.00792731
0.00880436
0.00921174
0.00883581
0.0101427
0.00486657
-0.00278726
-0.00802183
-0.00915367
-0.00800343
-0.00656602
-0.00554119
-0.00496122
-0.00469853
-0.00462768
-0.00466391
-0.0047627
-0.00490106
-0.0050618
-0.00523049
-0.0053978
-0.00556002
-0.00571648
-0.00586745
-0.00601269
-0.00615097
-0.00628143
-0.00640553
-0.00652623
-0.00664591
-0.00676534
-0.00688434
-0.00700248
-0.00712
-0.0072378
-0.00735659
-0.00747625
-0.00759602
-0.00771507
-0.00783305
-0.00794985
-0.00806529
-0.00817906
-0.00829054
-0.00839948
-0.00850591
-0.00861004
-0.0087123
-0.00881299
-0.00891208
-0.00900949
-0.00910533
-0.00920009
-0.00929422
-0.00938808
-0.00948146
-0.00957407
-0.00966588
-0.00975725
-0.00984859
-0.00993994
-0.010031
-0.0101216
-0.0102119
-0.0103023
-0.0103926
-0.0104828
-0.0105727
-0.0106625
-0.0107525
-0.0108424
-0.0109323
-0.0110219
-0.0111114
-0.0112009
-0.0112907
-0.0113806
-0.0114707
-0.0115608
-0.0116509
-0.0117413
-0.0118319
-0.0119225
-0.0120131
-0.0121037
-0.0121945
-0.0122854
-0.0123762
-0.0124672
-0.0125582
-0.0126496
-0.0127412
-0.0128331
-0.0129252
-0.0130178
-0.0131109
-0.0132046
-0.0132987
-0.0133933
-0.0134884
-0.0135841
-0.0136801
-0.0137766
-0.0138736
-0.0139709
-0.0140688
-0.0141668
-0.0142653
-0.0143642
-0.0144637
-0.0145634
-0.0146637
-0.0147642
-0.0148652
-0.0149667
-0.0150685
-0.0151709
-0.0152735
-0.0153768
-0.0154802
-0.0155844
-0.0156888
-0.015794
-0.0158993
-0.0160054
-0.0161119
-0.0162192
-0.0163271
-0.0164355
-0.0165446
-0.0166539
-0.0167641
-0.0168744
-0.0169858
-0.0170972
-0.0172095
-0.0173219
-0.0174353
-0.0175491
-0.0176635
-0.0177785
-0.0178938
-0.0180102
-0.0181266
-0.0182443
-0.0183619
-0.0184807
-0.0185995
-0.0187195
-0.0188399
-0.0189608
-0.0190825
-0.0192043
-0.0193278
-0.019451
-0.0195757
-0.0196999
-0.0198258
-0.019952
-0.0200791
-0.0202068
-0.0203345
-0.0204644
-0.0205936
-0.0207249
-0.0208553
-0.0209879
-0.0211205
-0.0212538
-0.0213882
-0.0215221
-0.0216589
-0.021794
-0.0219321
-0.0220689
-0.0222081
-0.0223479
-0.0224874
-0.0226296
-0.02277
-0.0229145
-0.0230566
-0.0232016
-0.0233468
-0.0234919
-0.0236405
-0.0237853
-0.0239362
-0.0240829
-0.0242343
-0.0243844
-0.0245347
-0.024689
-0.0248389
-0.0249947
-0.0251467
-0.0253002
-0.0254561
-0.0256047
-0.025762
-0.0259047
-0.0260563
-0.0261785
-0.0262957
0.00930774
0.00468061
-0.00270794
-0.00789095
-0.00907587
-0.00796604
-0.00654236
-0.00552428
-0.00494887
-0.00468905
-0.00461995
-0.0046573
-0.00475689
-0.00489587
-0.00505713
-0.00522626
-0.00539395
-0.00555652
-0.00571327
-0.00586451
-0.00600999
-0.00614851
-0.00627917
-0.00640344
-0.0065243
-0.00664412
-0.00676366
-0.00688277
-0.007001
-0.00711861
-0.00723649
-0.00735534
-0.00747506
-0.00759489
-0.007714
-0.00783202
-0.00794886
-0.00806435
-0.00817816
-0.00828967
-0.00839865
-0.00850512
-0.00860928
-0.00871157
-0.00881228
-0.00891139
-0.00900884
-0.00910469
-0.00919948
-0.00929363
-0.00938751
-0.00948091
-0.00957354
-0.00966537
-0.00975676
-0.00984811
-0.00993948
-0.0100305
-0.0101211
-0.0102115
-0.0103019
-0.0103922
-0.0104824
-0.0105724
-0.0106622
-0.0107521
-0.0108421
-0.010932
-0.0110216
-0.0111111
-0.0112006
-0.0112904
-0.0113804
-0.0114704
-0.0115605
-0.0116507
-0.0117411
-0.0118316
-0.0119223
-0.0120129
-0.0121035
-0.0121942
-0.0122852
-0.012376
-0.012467
-0.012558
-0.0126494
-0.012741
-0.0128329
-0.012925
-0.0130176
-0.0131107
-0.0132045
-0.0132986
-0.0133931
-0.0134883
-0.0135839
-0.01368
-0.0137764
-0.0138734
-0.0139708
-0.0140686
-0.0141666
-0.0142652
-0.014364
-0.0144636
-0.0145633
-0.0146635
-0.0147641
-0.0148651
-0.0149666
-0.0150684
-0.0151708
-0.0152734
-0.0153767
-0.0154801
-0.0155843
-0.0156887
-0.0157939
-0.0158992
-0.0160053
-0.0161118
-0.0162191
-0.016327
-0.0164354
-0.0165445
-0.0166538
-0.016764
-0.0168744
-0.0169858
-0.0170971
-0.0172094
-0.0173218
-0.0174352
-0.017549
-0.0176634
-0.0177785
-0.0178937
-0.0180101
-0.0181265
-0.0182443
-0.0183618
-0.0184806
-0.0185994
-0.0187194
-0.0188398
-0.0189607
-0.0190825
-0.0192043
-0.0193278
-0.0194509
-0.0195757
-0.0196998
-0.0198258
-0.019952
-0.0200791
-0.0202067
-0.0203344
-0.0204644
-0.0205936
-0.0207249
-0.0208552
-0.0209878
-0.0211205
-0.0212538
-0.0213882
-0.021522
-0.0216588
-0.0217939
-0.0219321
-0.0220688
-0.0222081
-0.0223478
-0.0224874
-0.0226296
-0.02277
-0.0229145
-0.0230566
-0.0232016
-0.0233468
-0.0234919
-0.0236404
-0.0237853
-0.0239361
-0.0240829
-0.0242343
-0.0243844
-0.0245347
-0.024689
-0.0248389
-0.0249947
-0.0251467
-0.0253002
-0.0254561
-0.0256047
-0.025762
-0.0259047
-0.0260563
-0.0261784
-0.0262956
0.00844906
0.00450259
-0.00252709
-0.00763956
-0.00893347
-0.00790914
-0.00651164
-0.00550084
-0.00493055
-0.0046751
-0.00460923
-0.00464879
-0.00474988
-0.00488991
-0.00505192
-0.00522162
-0.00538976
-0.00555273
-0.00570982
-0.00586135
-0.0060071
-0.00614586
-0.00627675
-0.00640121
-0.00652225
-0.00664224
-0.00676192
-0.00688115
-0.00699949
-0.0071172
-0.00723516
-0.00735409
-0.00747388
-0.00759377
-0.00771293
-0.007831
-0.00794789
-0.00806343
-0.00817728
-0.00828882
-0.00839784
-0.00850434
-0.00860853
-0.00871085
-0.00881159
-0.00891073
-0.0090082
-0.00910408
-0.00919888
-0.00929306
-0.00938696
-0.00948038
-0.00957303
-0.00966487
-0.00975628
-0.00984765
-0.00993903
-0.0100301
-0.0101207
-0.0102111
-0.0103015
-0.0103919
-0.010482
-0.010572
-0.0106618
-0.0107518
-0.0108418
-0.0109317
-0.0110213
-0.0111108
-0.0112003
-0.0112901
-0.0113801
-0.0114702
-0.0115602
-0.0116504
-0.0117408
-0.0118314
-0.011922
-0.0120126
-0.0121033
-0.012194
-0.012285
-0.0123758
-0.0124668
-0.0125578
-0.0126492
-0.0127408
-0.0128327
-0.0129248
-0.0130174
-0.0131105
-0.0132043
-0.0132984
-0.013393
-0.0134881
-0.0135838
-0.0136799
-0.0137763
-0.0138733
-0.0139706
-0.0140685
-0.0141665
-0.0142651
-0.0143639
-0.0144634
-0.0145632
-0.0146634
-0.014764
-0.014865
-0.0149664
-0.0150683
-0.0151707
-0.0152733
-0.0153766
-0.01548
-0.0155842
-0.0156886
-0.0157938
-0.0158992
-0.0160053
-0.0161117
-0.0162191
-0.0163269
-0.0164354
-0.0165444
-0.0166537
-0.0167639
-0.0168743
-0.0169857
-0.017097
-0.0172093
-0.0173218
-0.0174352
-0.0175489
-0.0176634
-0.0177784
-0.0178937
-0.01801
-0.0181264
-0.0182442
-0.0183618
-0.0184806
-0.0185993
-0.0187193
-0.0188398
-0.0189607
-0.0190824
-0.0192042
-0.0193277
-0.0194509
-0.0195756
-0.0196998
-0.0198257
-0.019952
-0.020079
-0.0202067
-0.0203344
-0.0204643
-0.0205935
-0.0207249
-0.0208552
-0.0209878
-0.0211204
-0.0212537
-0.0213882
-0.021522
-0.0216588
-0.0217939
-0.0219321
-0.0220688
-0.022208
-0.0223478
-0.0224874
-0.0226296
-0.0227699
-0.0229144
-0.0230566
-0.0232016
-0.0233468
-0.0234918
-0.0236404
-0.0237852
-0.0239361
-0.0240828
-0.0242343
-0.0243844
-0.0245346
-0.0246889
-0.0248389
-0.0249946
-0.0251467
-0.0253001
-0.0254561
-0.0256047
-0.025762
-0.0259047
-0.0260562
-0.0261784
-0.0262956
0.00764225
0.00434651
-0.00227326
-0.0073041
-0.00873453
-0.00782837
-0.00646825
-0.00546598
-0.00490239
-0.00465392
-0.00459358
-0.004637
-0.00474066
-0.00488237
-0.00504548
-0.00521594
-0.00538466
-0.00554811
-0.00570563
-0.0058575
-0.00600354
-0.00614258
-0.00627374
-0.00639848
-0.00651978
-0.00664
-0.00675987
-0.00687926
-0.00699775
-0.0071156
-0.00723368
-0.00735271
-0.00747259
-0.00759256
-0.00771179
-0.00782992
-0.00794687
-0.00806246
-0.00817635
-0.00828794
-0.00839699
-0.00850353
-0.00860776
-0.0087101
-0.00881088
-0.00891004
-0.00900754
-0.00910344
-0.00919827
-0.00929247
-0.00938639
-0.00947983
-0.0095725
-0.00966436
-0.00975578
-0.00984717
-0.00993857
-0.0100296
-0.0101203
-0.0102107
-0.0103011
-0.0103915
-0.0104817
-0.0105717
-0.0106615
-0.0107515
-0.0108414
-0.0109314
-0.011021
-0.0111105
-0.0112
-0.0112898
-0.0113798
-0.0114699
-0.01156
-0.0116502
-0.0117406
-0.0118312
-0.0119218
-0.0120124
-0.0121031
-0.0121938
-0.0122847
-0.0123756
-0.0124666
-0.0125576
-0.012649
-0.0127406
-0.0128326
-0.0129246
-0.0130173
-0.0131104
-0.0132041
-0.0132982
-0.0133928
-0.013488
-0.0135836
-0.0136797
-0.0137761
-0.0138732
-0.0139705
-0.0140684
-0.0141664
-0.014265
-0.0143638
-0.0144633
-0.0145631
-0.0146633
-0.0147638
-0.0148649
-0.0149663
-0.0150682
-0.0151706
-0.0152732
-0.0153765
-0.0154799
-0.0155841
-0.0156885
-0.0157937
-0.0158991
-0.0160052
-0.0161116
-0.016219
-0.0163269
-0.0164353
-0.0165443
-0.0166536
-0.0167638
-0.0168742
-0.0169856
-0.0170969
-0.0172093
-0.0173217
-0.0174351
-0.0175489
-0.0176633
-0.0177783
-0.0178936
-0.01801
-0.0181264
-0.0182442
-0.0183617
-0.0184805
-0.0185993
-0.0187193
-0.0188397
-0.0189606
-0.0190824
-0.0192042
-0.0193277
-0.0194508
-0.0195756
-0.0196997
-0.0198257
-0.0199519
-0.020079
-0.0202066
-0.0203343
-0.0204643
-0.0205935
-0.0207248
-0.0208552
-0.0209878
-0.0211204
-0.0212537
-0.0213881
-0.0215219
-0.0216588
-0.0217939
-0.021932
-0.0220688
-0.022208
-0.0223478
-0.0224873
-0.0226295
-0.0227699
-0.0229144
-0.0230565
-0.0232015
-0.0233467
-0.0234918
-0.0236404
-0.0237852
-0.0239361
-0.0240828
-0.0242342
-0.0243843
-0.0245346
-0.0246889
-0.0248388
-0.0249946
-0.0251466
-0.0253001
-0.025456
-0.0256047
-0.025762
-0.0259046
-0.0260562
-0.0261784
-0.0262956
0.00687219
0.00417284
-0.00200165
-0.00693847
-0.00851125
-0.00773704
-0.00641879
-0.00542298
-0.00486524
-0.004625
-0.00457197
-0.00462073
-0.00472806
-0.00487222
-0.00503692
-0.00520842
-0.00537791
-0.00554201
-0.00570009
-0.00585239
-0.00599875
-0.00613809
-0.00626959
-0.0063947
-0.00651638
-0.00663695
-0.00675711
-0.00687673
-0.00699545
-0.00711351
-0.00723179
-0.00735097
-0.00747098
-0.00759107
-0.0077104
-0.00782861
-0.00794564
-0.0080613
-0.00817525
-0.00828688
-0.00839598
-0.00850258
-0.00860686
-0.00870924
-0.00881005
-0.00890925
-0.00900678
-0.00910271
-0.00919757
-0.0092918
-0.00938574
-0.00947921
-0.0095719
-0.00966378
-0.00975522
-0.00984663
-0.00993805
-0.0100291
-0.0101198
-0.0102103
-0.0103006
-0.0103911
-0.0104813
-0.0105713
-0.0106611
-0.0107511
-0.0108411
-0.010931
-0.0110207
-0.0111102
-0.0111997
-0.0112895
-0.0113795
-0.0114696
-0.0115597
-0.0116499
-0.0117403
-0.0118309
-0.0119216
-0.0120122
-0.0121028
-0.0121936
-0.0122845
-0.0123754
-0.0124664
-0.0125574
-0.0126488
-0.0127404
-0.0128324
-0.0129245
-0.0130171
-0.0131102
-0.013204
-0.0132981
-0.0133927
-0.0134878
-0.0135834
-0.0136796
-0.013776
-0.013873
-0.0139704
-0.0140682
-0.0141663
-0.0142648
-0.0143637
-0.0144632
-0.0145629
-0.0146632