/*--------------------------------*- C++ -*----------------------------------*\
| =========                 |                                                 |
| \\      /  F ield         | OpenFOAM: The Open Source CFD Toolbox           |
|  \\    /   O peration     | Version:  v2012                                 |
|   \\  /    A nd           | Website:  www.openfoam.com                      |
|    \\/     M anipulation  |                                                 |
\*---------------------------------------------------------------------------*/
FoamFile
{
    version     2.0;
    format      ascii;
    class       surfaceScalarField;
    location    "4.6";
    object      phi;
}
// * * * * * * * * * * * * * * * * * * * * * * * * * * * * * * * * * * * * * //

dimensions      [0 3 -1 0 0 0 0];
oriented        oriented;


internalField   nonuniform List<scalar> 
34900
(
1.17661e-06
-1.71448e-07
1.1736e-06
1.93838e-07
1.18088e-06
2.06063e-07
1.16751e-06
5.43666e-08
1.16818e-06
5.19702e-08
1.1576e-06
-5.06757e-08
1.15999e-06
4.04902e-08
1.15201e-06
-3.01531e-08
1.15566e-06
4.82682e-08
1.14727e-06
-5.30651e-08
1.15259e-06
8.70101e-08
1.14193e-06
-9.0992e-08
1.15019e-06
1.41371e-07
1.1348e-06
-1.18787e-07
1.14597e-06
1.52832e-07
1.12588e-06
-9.6073e-08
1.13841e-06
1.164e-07
1.11564e-06
-6.20977e-08
1.12521e-06
9.60315e-08
-4.39937e-08
1.07679e-06
1.23235e-06
-1.79536e-07
1.23165e-06
1.94535e-07
1.23704e-06
2.0068e-07
1.2257e-06
6.57047e-08
1.22356e-06
5.41121e-08
1.21527e-06
-4.23933e-08
1.21432e-06
4.14456e-08
1.20968e-06
-2.55178e-08
1.20934e-06
4.86102e-08
1.20546e-06
-4.91855e-08
1.20495e-06
8.75182e-08
1.20064e-06
-8.66758e-08
1.20031e-06
1.41699e-07
1.19516e-06
-1.13638e-07
1.19299e-06
1.55005e-07
1.19015e-06
-9.32353e-08
1.18202e-06
1.24528e-07
1.18557e-06
-6.56495e-08
1.16508e-06
1.16526e-07
-4.06931e-08
1.16178e-06
1.28909e-06
-1.85846e-07
1.29341e-06
1.9022e-07
1.2946e-06
1.99493e-07
1.28847e-06
7.18346e-08
1.28147e-06
6.11118e-08
1.27743e-06
-3.83542e-08
1.27122e-06
4.76537e-08
1.27159e-06
-2.58904e-08
1.26589e-06
5.43137e-08
1.26742e-06
-5.07204e-08
1.26142e-06
9.35221e-08
1.26269e-06
-8.79431e-08
1.25755e-06
1.46837e-07
1.25786e-06
-1.13949e-07
1.25278e-06
1.60084e-07
1.2536e-06
-9.40532e-08
1.24748e-06
1.30646e-07
1.2475e-06
-6.5675e-08
1.24024e-06
1.23788e-07
-2.27848e-08
1.22233e-06
1.34687e-06
-1.88608e-07
1.35616e-06
1.80925e-07
1.35366e-06
2.01994e-07
1.35335e-06
7.2147e-08
1.34223e-06
7.2226e-08
1.34179e-06
-3.7913e-08
1.33183e-06
5.76168e-08
1.33511e-06
-2.91743e-08
1.32706e-06
6.23634e-08
1.33043e-06
-5.40887e-08
1.32384e-06
1.00112e-07
1.32559e-06
-8.96918e-08
1.3222e-06
1.50223e-07
1.32165e-06
-1.13395e-07
1.32054e-06
1.61191e-07
1.31849e-06
-9.19975e-08
1.31837e-06
1.30762e-07
1.31288e-06
-6.01828e-08
1.31261e-06
1.24059e-07
-1.16251e-09
1.29099e-06
1.40671e-06
-1.86967e-07
1.41871e-06
1.68924e-07
1.41466e-06
2.06049e-07
1.41871e-06
6.80993e-08
1.40639e-06
8.4547e-08
1.40725e-06
-3.87753e-08
1.39688e-06
6.79851e-08
1.39997e-06
-3.22676e-08
1.3932e-06
6.91418e-08
1.39529e-06
-5.61825e-08
1.39122e-06
1.04182e-07
1.39112e-06
-8.95899e-08
1.39087e-06
1.50467e-07
1.38848e-06
-1.10999e-07
1.39039e-06
1.59279e-07
1.38632e-06
-8.79236e-08
1.38883e-06
1.28247e-07
1.38094e-06
-5.22885e-08
1.38285e-06
1.22149e-07
2.05987e-08
1.36109e-06
1.47018e-06
-1.81476e-07
1.48178e-06
1.57328e-07
1.47872e-06
2.09105e-07
1.4848e-06
6.20235e-08
1.47439e-06
9.49574e-08
1.47464e-06
-3.90268e-08
1.46637e-06
7.62541e-08
1.46776e-06
-3.36544e-08
1.46358e-06
7.33209e-08
1.46385e-06
-5.64511e-08
1.46221e-06
1.05819e-07
1.46066e-06
-8.80436e-08
1.46225e-06
1.48876e-07
1.45887e-06
-1.07611e-07
1.46218e-06
1.55968e-07
1.45702e-06
-8.27668e-08
1.46089e-06
1.24374e-07
1.45139e-06
-4.27885e-08
1.45484e-06
1.18708e-07
4.21503e-08
1.43328e-06
1.53853e-06
-1.73793e-07
1.54742e-06
1.48441e-07
1.54691e-06
2.09612e-07
1.55317e-06
5.57676e-08
1.54626e-06
1.01866e-07
1.54543e-06
-3.81983e-08
1.53986e-06
8.18309e-08
1.53979e-06
-3.35842e-08
1.53766e-06
7.54472e-08
1.53688e-06
-5.5675e-08
1.53661e-06
1.0609e-07
1.53444e-06
-8.5873e-08
1.53691e-06
1.46412e-07
1.53296e-06
-1.03662e-07
1.53718e-06
1.51742e-07
1.53106e-06
-7.66432e-08
1.53614e-06
1.19297e-07
1.52512e-06
-3.17699e-08
1.52981e-06
1.14019e-07
6.30424e-08
1.50892e-06
1.61211e-06
-1.65776e-07
1.61768e-06
1.42869e-07
1.61974e-06
2.0756e-07
1.62533e-06
5.01745e-08
1.62177e-06
1.05428e-07
1.62043e-06
-3.68656e-08
1.617e-06
8.52623e-08
1.61633e-06
-3.29114e-08
1.61536e-06
7.64145e-08
1.61427e-06
-5.45789e-08
1.61469e-06
1.05662e-07
1.61229e-06
-8.34666e-08
1.61534e-06
1.43359e-07
1.61086e-06
-9.91841e-08
1.61596e-06
1.46641e-07
1.60878e-06
-6.94626e-08
1.615e-06
1.13084e-07
1.60259e-06
-1.93677e-08
1.60807e-06
1.08542e-07
8.26835e-08
1.58843e-06
1.69046e-06
-1.5866e-07
1.69355e-06
1.39777e-07
1.69718e-06
2.03932e-07
1.70199e-06
4.53634e-08
1.70075e-06
1.06673e-07
1.69963e-06
-3.57527e-08
1.69767e-06
8.72303e-08
1.69701e-06
-3.22565e-08
1.69667e-06
7.6759e-08
1.69556e-06
-5.3476e-08
1.69647e-06
1.0476e-07
1.6939e-06
-8.09026e-08
1.69753e-06
1.39727e-07
1.69244e-06
-9.40894e-08
1.69846e-06
1.40617e-07
1.69014e-06
-6.11345e-08
1.69736e-06
1.05856e-07
1.68383e-06
-5.83086e-09
1.68955e-06
1.02817e-07
1.005e-07
1.67173e-06
1.7729e-06
-1.52836e-07
1.77488e-06
1.37792e-07
1.77902e-06
1.99796e-07
1.78318e-06
4.11964e-08
1.7832e-06
1.06655e-07
1.78268e-06
-3.52278e-08
1.78173e-06
8.81773e-08
1.78133e-06
-3.18578e-08
1.78141e-06
7.66844e-08
1.78034e-06
-5.2413e-08
1.7817e-06
1.03408e-07
1.77892e-06
-7.81294e-08
1.7832e-06
1.35447e-07
1.77738e-06
-8.827e-08
1.78438e-06
1.33619e-07
1.77488e-06
-5.16325e-08
1.78292e-06
9.78177e-08
1.76863e-06
8.45415e-09
1.774e-06
9.74441e-08
1.15976e-07
1.75853e-06
1.85904e-06
-1.48124e-07
1.86101e-06
1.3582e-07
1.86502e-06
1.95788e-07
1.86869e-06
3.75213e-08
1.86925e-06
1.06093e-07
1.86932e-06
-3.52953e-08
1.86914e-06
8.83571e-08
1.869e-06
-3.17144e-08
1.86944e-06
7.62373e-08
1.86836e-06
-5.13256e-08
1.8702e-06
1.01563e-07
1.86711e-06
-7.50423e-08
1.87212e-06
1.30437e-07
1.86549e-06
-8.16363e-08
1.87346e-06
1.25647e-07
1.86287e-06
-4.10419e-08
1.87141e-06
8.92842e-08
1.8569e-06
2.2965e-08
1.8613e-06
9.30369e-08
1.28712e-07
1.84857e-06
1.94888e-06
-1.44168e-07
1.95137e-06
1.33332e-07
1.95506e-06
1.92095e-07
1.95838e-06
3.42059e-08
1.9591e-06
1.05369e-07
1.95959e-06
-3.57814e-08
1.96001e-06
8.79378e-08
1.96002e-06
-3.17238e-08
1.96085e-06
7.54078e-08
1.95963e-06
-5.01102e-08
1.96203e-06
9.91618e-08
1.95851e-06
-7.15202e-08
1.96432e-06
1.24629e-07
1.95683e-06
-7.41438e-08
1.9657e-06
1.16776e-07
1.95424e-06
-2.95814e-08
1.96285e-06
8.06782e-08
1.9487e-06
3.71116e-08
1.9516e-06
9.01355e-08
1.38506e-07
1.94181e-06
2.04269e-06
-1.40667e-07
2.04577e-06
1.30245e-07
2.04921e-06
1.88658e-07
2.05229e-06
3.11242e-08
2.05303e-06
1.04635e-07
2.05373e-06
-3.64837e-08
2.05463e-06
8.70361e-08
2.05466e-06
-3.17514e-08
2.0559e-06
7.41643e-08
2.05444e-06
-4.86511e-08
2.05747e-06
9.61326e-08
2.0534e-06
-6.74501e-08
2.06005e-06
1.17982e-07
2.05172e-06
-6.58141e-08
2.06132e-06
1.07176e-07
2.04933e-06
-1.7592e-08
2.05752e-06
7.24864e-08
2.0443e-06
5.03329e-08
2.04535e-06
8.90819e-08
1.45433e-07
2.03843e-06
2.14077e-06
-1.37433e-07
2.14432e-06
1.26689e-07
2.14763e-06
1.85349e-07
2.15059e-06
2.81667e-08
2.15132e-06
1.03906e-07
2.15207e-06
-3.72355e-08
2.15339e-06
8.57147e-08
2.1533e-06
-3.16612e-08
2.15501e-06
7.24593e-08
2.15319e-06
-4.68322e-08
2.15691e-06
9.24074e-08
2.15221e-06
-6.27468e-08
2.15969e-06
1.105e-07
2.15062e-06
-5.67467e-08
2.16069e-06
9.71111e-08
2.1486e-06
-5.50423e-09
2.15587e-06
6.52169e-08
2.14405e-06
6.21556e-08
2.14315e-06
8.99797e-08
1.49829e-07
2.13875e-06
2.24343e-06
-1.34372e-07
2.24728e-06
1.22842e-07
2.25057e-06
1.8205e-07
2.25348e-06
2.52589e-08
2.25426e-06
1.03124e-07
2.25494e-06
-3.791e-08
2.25667e-06
8.3981e-08
2.25634e-06
-3.13237e-08
2.25856e-06
7.02305e-08
2.25628e-06
-4.45466e-08
2.26076e-06
8.79295e-08
2.25538e-06
-5.73687e-08
2.26363e-06
1.02246e-07
2.25401e-06
-4.71265e-08
2.2642e-06
8.69199e-08
2.25248e-06
6.21734e-09
2.25837e-06
5.93337e-08
2.24828e-06
7.2244e-08
2.24554e-06
9.27213e-08
1.5221e-07
2.24315e-06
2.35095e-06
-1.31447e-07
2.35492e-06
1.1887e-07
2.35832e-06
1.78656e-07
2.3612e-06
2.237e-08
2.36213e-06
1.02194e-07
2.36263e-06
-3.84021e-08
2.36481e-06
8.17962e-08
2.36411e-06
-3.06177e-08
2.36693e-06
6.74048e-08
2.36409e-06
-4.17061e-08
2.36935e-06
8.26681e-08
2.36332e-06
-5.13349e-08
2.37221e-06
9.33552e-08
2.36231e-06
-3.72277e-08
2.37223e-06
7.69987e-08
2.36132e-06
1.71323e-08
2.36547e-06
5.51816e-08
2.35726e-06
8.04529e-08
2.35297e-06
9.70089e-08
1.53181e-07
2.352e-06
2.4636e-06
-1.28649e-07
2.46755e-06
1.1492e-07
2.47114e-06
1.75068e-07
2.47399e-06
1.95117e-08
2.47518e-06
1.01005e-07
2.47539e-06
-3.86111e-08
2.4781e-06
7.9089e-08
2.47691e-06
-2.94302e-08
2.48041e-06
6.3909e-08
2.47696e-06
-3.82542e-08
2.48299e-06
7.66357e-08
2.4764e-06
-4.47417e-08
2.4857e-06
8.40481e-08
2.47587e-06
-2.74e-08
2.48512e-06
6.7758e-08
2.47536e-06
2.68897e-08
2.47761e-06
5.29293e-08
2.47121e-06
8.68569e-08
2.46583e-06
1.02384e-07
1.53355e-07
2.46566e-06
2.58164e-06
-1.2599e-07
2.58544e-06
1.1112e-07
2.58932e-06
1.71185e-07
2.5921e-06
1.67319e-08
2.59367e-06
9.94318e-08
2.59349e-06
-3.84316e-08
2.59681e-06
7.57697e-08
2.59504e-06
-2.76614e-08
2.59927e-06
5.96859e-08
2.59519e-06
-3.41816e-08
2.60192e-06
6.99072e-08
2.59495e-06
-3.77735e-08
2.60438e-06
7.46215e-08
2.59501e-06
-1.80308e-08
2.6032e-06
5.95712e-08
2.59482e-06
3.52657e-08
2.59521e-06
5.25421e-08
2.59034e-06
9.17296e-08
2.58441e-06
1.08307e-07
1.53289e-07
2.58448e-06
2.70533e-06
-1.23492e-07
2.70886e-06
1.07589e-07
2.71316e-06
1.6689e-07
2.71578e-06
1.4108e-08
2.71787e-06
9.73448e-08
2.71719e-06
-3.77546e-08
2.72121e-06
7.17456e-08
2.71879e-06
-2.52363e-08
2.72376e-06
5.47157e-08
2.71912e-06
-2.95454e-08
2.72639e-06
6.26351e-08
2.71932e-06
-3.06993e-08
2.72852e-06
6.54182e-08
2.71999e-06
-9.49306e-09
2.72683e-06
5.27275e-08
2.71991e-06
4.21844e-08
2.71864e-06
5.38099e-08
2.71491e-06
9.54578e-08
2.70895e-06
1.14269e-07
1.53397e-07
2.70884e-06
2.83496e-06
-1.21182e-07
2.8381e-06
1.04445e-07
2.84293e-06
1.62058e-07
2.8453e-06
1.17381e-08
2.84804e-06
9.46107e-08
2.84676e-06
-3.64772e-08
2.85157e-06
6.69398e-08
2.84845e-06
-2.21235e-08
2.85413e-06
4.90399e-08
2.84908e-06
-2.4491e-08
2.85665e-06
5.50594e-08
2.8498e-06
-2.38497e-08
2.85845e-06
5.67706e-08
2.85103e-06
-2.07433e-09
2.85639e-06
4.7368e-08
2.85083e-06
4.77491e-08
2.84823e-06
5.64031e-08
2.84526e-06
9.84306e-08
2.83965e-06
1.1988e-07
1.53915e-07
2.83913e-06
2.9708e-06
-1.19089e-07
2.97345e-06
1.018e-07
2.97895e-06
1.56552e-07
2.98096e-06
9.73115e-09
2.98447e-06
9.11041e-08
2.98251e-06
-3.45177e-08
2.98813e-06
6.13132e-08
2.98437e-06
-1.8357e-08
2.99062e-06
4.2784e-08
2.98539e-06
-1.92592e-08
2.99296e-06
4.74928e-08
2.98669e-06
-1.75822e-08
2.9945e-06
4.8959e-08
2.98836e-06
4.07184e-09
2.99228e-06
4.34443e-08
2.98781e-06
5.22244e-08
2.98424e-06
5.99648e-08
2.98171e-06
1.00962e-07
2.97669e-06
1.24903e-07
1.54902e-07
2.9757e-06
3.11316e-06
-1.17245e-07
3.11519e-06
9.97693e-08
3.12151e-06
1.50232e-07
3.12305e-06
8.19311e-09
3.12743e-06
8.67212e-08
3.12475e-06
-3.18356e-08
3.13118e-06
5.48885e-08
3.12688e-06
-1.40558e-08
3.13349e-06
3.61649e-08
3.12841e-06
-1.41708e-08
3.13562e-06
4.02818e-08
3.13026e-06
-1.22255e-08
3.13705e-06
4.21649e-08
3.13219e-06
8.94128e-09
3.13489e-06
4.07345e-08
3.13117e-06
5.59541e-08
3.12692e-06
6.42057e-08
3.12456e-06
1.03327e-07
3.12027e-06
1.29189e-07
1.56294e-07
3.11888e-06
3.26234e-06
-1.15675e-07
3.26365e-06
9.84626e-08
3.27092e-06
1.4296e-07
3.2719e-06
7.20964e-09
3.27722e-06
8.13997e-08
3.27384e-06
-2.84546e-08
3.28096e-06
4.77757e-08
3.27634e-06
-9.44534e-09
3.28301e-06
2.95015e-08
3.27845e-06
-9.61489e-09
3.28496e-06
3.3773e-08
3.28077e-06
-8.02994e-09
3.28648e-06
3.64471e-08
3.2828e-06
1.26249e-08
3.28463e-06
3.89085e-08
3.28135e-06
5.92335e-08
3.27651e-06
6.90396e-08
3.27392e-06
1.0592e-07
3.27067e-06
1.32435e-07
1.58103e-07
3.26886e-06
3.41866e-06
-1.14405e-07
3.41914e-06
9.79828e-08
3.42748e-06
1.34621e-07
3.42786e-06
6.82587e-09
3.43412e-06
7.5141e-08
3.43015e-06
-2.44868e-08
3.43774e-06
4.01927e-08
3.43316e-06
-4.86504e-09
3.43946e-06
2.32027e-08
3.43586e-06
-6.01747e-09
3.44136e-06
2.82738e-08
3.43846e-06
-5.13333e-09
3.44315e-06
3.17618e-08
3.44054e-06
1.52325e-08
3.44193e-06
3.75164e-08
3.43921e-06
6.19579e-08
3.43329e-06
7.49582e-08
3.42952e-06
1.0969e-07
3.42756e-06
1.34393e-07
1.60251e-07
3.42541e-06
3.58246e-06
-1.13449e-07
3.58203e-06
9.84128e-08
3.59151e-06
1.25135e-07
3.59131e-06
7.0248e-09
3.59842e-06
6.80306e-08
3.59409e-06
-2.01507e-08
3.60181e-06
3.24665e-08
3.59768e-06
-7.32726e-10
3.60321e-06
1.76785e-08
3.60089e-06
-3.70086e-09
3.60525e-06
2.39116e-08
3.60358e-06
-3.46174e-09
3.60745e-06
2.7886e-08
3.60574e-06
1.69447e-08
3.60736e-06
3.58994e-08
3.60804e-06
6.12821e-08
3.60759e-06
7.54074e-08
3.60194e-06
1.15338e-07
3.58516e-06
1.51171e-07
1.57767e-07
3.58764e-06
3.75407e-06
-1.12817e-07
3.75268e-06
9.98072e-08
3.76333e-06
1.14485e-07
3.76265e-06
7.70498e-09
3.77043e-06
6.02539e-08
3.76605e-06
-1.57731e-08
3.77351e-06
2.50009e-08
3.77025e-06
2.53373e-09
3.77469e-06
1.3233e-08
3.77373e-06
-2.73391e-09
3.77716e-06
2.04817e-08
3.77634e-06
-2.64276e-09
3.77996e-06
2.42599e-08
3.77904e-06
1.7864e-08
3.78152e-06
3.34198e-08
3.78638e-06
5.64287e-08
3.79092e-06
7.08595e-08
3.79969e-06
1.06577e-07
3.81165e-06
1.39211e-07
1.81503e-07
3.78791e-06
3.93387e-06
-1.12502e-07
3.93151e-06
1.02174e-07
3.94325e-06
1.02745e-07
3.9423e-06
8.64724e-09
3.95044e-06
5.21179e-08
3.94646e-06
-1.17952e-08
3.95321e-06
1.82501e-08
3.95118e-06
4.57117e-09
3.95441e-06
1.00033e-08
3.9546e-06
-2.92853e-09
3.95752e-06
1.75585e-08
3.95713e-06
-2.24577e-09
3.96105e-06
2.03313e-08
3.96205e-06
1.68655e-08
3.96403e-06
3.14425e-08
3.95672e-06
6.37349e-08
3.94512e-06
8.24619e-08
3.93906e-06
1.12642e-07
3.92992e-06
1.48349e-07
1.75644e-07
3.93578e-06
4.12223e-06
-1.12483e-07
4.11895e-06
1.05459e-07
4.13158e-06
9.01079e-08
4.13072e-06
9.50767e-09
4.13882e-06
4.40252e-08
4.13573e-06
-8.71014e-09
4.14137e-06
1.26066e-08
4.14072e-06
5.22038e-09
4.1429e-06
7.82507e-09
4.14379e-06
-3.81278e-09
4.14676e-06
1.4585e-08
4.14658e-06
-2.06062e-09
4.14882e-06
1.80852e-08
4.14343e-06
2.22584e-08
4.13587e-06
3.89982e-08
4.13257e-06
6.70359e-08
4.12778e-06
8.72519e-08
4.12322e-06
1.17202e-07
4.12031e-06
1.51256e-07
1.72758e-07
4.1232e-06
4.31954e-06
-1.12718e-07
4.31546e-06
1.09534e-07
4.32866e-06
7.69075e-08
4.32837e-06
9.80517e-09
4.33594e-06
3.64482e-08
4.33422e-06
-6.98997e-09
4.33853e-06
8.29473e-09
4.33916e-06
4.59857e-09
4.34069e-06
6.2925e-09
4.34172e-06
-4.84236e-09
4.34442e-06
1.18824e-08
4.34094e-06
1.4197e-09
4.33803e-06
2.09965e-08
4.33264e-06
2.76494e-08
4.32844e-06
4.31967e-08
4.3248e-06
7.06765e-08
4.3203e-06
9.17457e-08
4.31745e-06
1.20058e-07
4.31752e-06
1.51182e-07
1.70672e-07
4.31961e-06
4.5262e-06
-1.13144e-07
4.52156e-06
1.14179e-07
4.53482e-06
6.36468e-08
4.53569e-06
8.9354e-09
4.54226e-06
2.98704e-08
4.54228e-06
-7.00539e-09
4.54528e-06
5.29428e-09
4.54676e-06
3.11763e-09
4.54815e-06
4.90518e-09
4.54795e-06
-4.6426e-09
4.54801e-06
1.18243e-08
4.54228e-06
7.14663e-09
4.53927e-06
2.40047e-08
4.53423e-06
3.26869e-08
4.5304e-06
4.70318e-08
4.52695e-06
7.41261e-08
4.52286e-06
9.58347e-08
4.52098e-06
1.21934e-07
4.52296e-06
1.49204e-07
1.6935e-07
4.52429e-06
4.74265e-06
-1.13675e-07
4.73775e-06
1.19079e-07
4.75042e-06
5.09744e-08
4.75311e-06
6.2413e-09
4.75831e-06
2.46678e-08
4.76018e-06
-8.87124e-09
4.76224e-06
3.23698e-09
4.76386e-06
1.50033e-09
4.76511e-06
3.64617e-09
4.76175e-06
-1.27331e-09
4.75968e-06
1.38924e-08
4.75422e-06
1.26077e-08
4.75079e-06
2.74305e-08
4.74611e-06
3.73626e-08
4.74234e-06
5.08058e-08
4.73923e-06
7.72356e-08
4.7356e-06
9.94663e-08
4.73451e-06
1.23021e-07
4.7365e-06
1.47214e-07
1.67582e-07
4.73827e-06
4.96933e-06
-1.14206e-07
4.96457e-06
1.23836e-07
4.97589e-06
3.96544e-08
4.98104e-06
1.09529e-09
4.98469e-06
2.10154e-08
4.98823e-06
-1.24169e-08
4.98992e-06
1.55106e-09
4.99059e-06
8.34746e-10
4.99055e-06
3.68119e-09
4.98466e-06
4.61434e-09
4.98159e-06
1.69659e-08
4.97659e-06
1.76105e-08
4.97303e-06
3.09913e-08
4.96851e-06
4.18743e-08
4.96473e-06
5.45902e-08
4.962e-06
7.99623e-08
4.95897e-06
1.025e-07
4.95842e-06
1.23569e-07
4.95991e-06
1.45731e-07
1.65062e-07
4.96243e-06
5.20672e-06
-1.14614e-07
5.20257e-06
1.27986e-07
5.21174e-06
3.04898e-08
5.21978e-06
-6.94866e-09
5.22206e-06
1.87415e-08
5.22685e-06
-1.72065e-08
5.2286e-06
-2.05186e-10
5.22711e-06
2.3278e-09
5.22449e-06
6.30333e-09
5.21816e-06
1.09451e-08
5.21435e-06
2.07691e-08
5.20991e-06
2.20513e-08
5.20636e-06
3.4546e-08
5.2019e-06
4.633e-08
5.19806e-06
5.84291e-08
5.19567e-06
8.23572e-08
5.19347e-06
1.04699e-07
5.19306e-06
1.23974e-07
5.19441e-06
1.44389e-07
1.62063e-07
5.19741e-06
5.45535e-06
-1.14773e-07
5.4523e-06
1.31036e-07
5.45864e-06
2.41449e-08
5.46955e-06
-1.78595e-08
5.47112e-06
1.71716e-08
5.47642e-06
-2.25009e-08
5.47851e-06
-2.30044e-09
5.47297e-06
7.87069e-09
5.46891e-06
1.0368e-08
5.46303e-06
1.68205e-08
5.4587e-06
2.50984e-08
5.45462e-06
2.61335e-08
5.45117e-06
3.7998e-08
5.44683e-06
5.06707e-08
5.44289e-06
6.2363e-08
5.44073e-06
8.45153e-08
5.43945e-06
1.05983e-07
5.43908e-06
1.24348e-07
5.4405e-06
1.42965e-07
1.58772e-07
5.44379e-06
5.71574e-06
-1.14558e-07
5.71428e-06
1.32503e-07
5.71742e-06
2.1006e-08
5.73053e-06
-3.09739e-08
5.73221e-06
1.5494e-08
5.7362e-06
-2.64929e-08
5.73619e-06
-2.28751e-09
5.72904e-06
1.50139e-08
5.72481e-06
1.46037e-08
5.71998e-06
2.16447e-08
5.71522e-06
2.98604e-08
5.71116e-06
3.01908e-08
5.70791e-06
4.12559e-08
5.7038e-06
5.47742e-08
5.69981e-06
6.63589e-08
5.6978e-06
8.65259e-08
5.69728e-06
1.06503e-07
5.69711e-06
1.2451e-07
5.69869e-06
1.41392e-07
1.55303e-07
5.70216e-06
5.9885e-06
-1.13861e-07
5.9891e-06
1.31903e-07
5.98891e-06
2.11903e-08
6.00282e-06
-4.48843e-08
6.00385e-06
1.44676e-08
6.00368e-06
-2.63225e-08
6.00399e-06
-2.59921e-09
5.99759e-06
2.14151e-08
5.99338e-06
1.88124e-08
5.9894e-06
2.56232e-08
5.98447e-06
3.47927e-08
5.98013e-06
3.4527e-08
5.97708e-06
4.43058e-08
5.97334e-06
5.85122e-08
5.9694e-06
7.03053e-08
5.96748e-06
8.84403e-08
5.96746e-06
1.06531e-07
5.96774e-06
1.24228e-07
5.96952e-06
1.39608e-07
1.51725e-07
5.9731e-06
6.27423e-06
-1.126e-07
6.27725e-06
1.28883e-07
6.27402e-06
2.44134e-08
6.28668e-06
-5.75412e-08
6.28708e-06
1.4069e-08
6.28498e-06
-2.42225e-08
6.28591e-06
-3.52686e-09
6.27972e-06
2.76073e-08
6.27508e-06
2.34427e-08
6.27179e-06
2.89207e-08
6.26699e-06
3.95927e-08
6.26219e-06
3.93196e-08
6.25924e-06
4.72578e-08
6.25599e-06
6.17658e-08
6.25224e-06
7.40521e-08
6.25043e-06
9.02574e-08
6.25061e-06
1.06343e-07
6.25147e-06
1.23373e-07
6.25356e-06
1.37519e-07
1.48049e-07
6.25723e-06
6.57358e-06
-1.10715e-07
6.57922e-06
1.23252e-07
6.57345e-06
3.018e-08
6.58356e-06
-6.76529e-08
6.58462e-06
1.30143e-08
6.58081e-06
-2.04153e-08
6.58181e-06
-4.52721e-09
6.57584e-06
3.35744e-08
6.57051e-06
2.87706e-08
6.56772e-06
3.17133e-08
6.56332e-06
4.39938e-08
6.55806e-06
4.45758e-08
6.55501e-06
5.03112e-08
6.5523e-06
6.44792e-08
6.54893e-06
7.74227e-08
6.54725e-06
9.1933e-08
6.54748e-06
1.06119e-07
6.54887e-06
1.21974e-07
6.55136e-06
1.35031e-07
1.44235e-07
6.55518e-06
6.88725e-06
-1.08176e-07
6.8954e-06
1.15099e-07
6.88785e-06
3.7739e-08
6.89515e-06
-7.49535e-08
6.89675e-06
1.14085e-08
6.89127e-06
-1.49355e-08
6.89196e-06
-5.21804e-09
6.88651e-06
3.90305e-08
6.88037e-06
3.49029e-08
6.87781e-06
3.42743e-08
6.87402e-06
4.77863e-08
6.86845e-06
5.01472e-08
6.8651e-06
5.36634e-08
6.86287e-06
6.6707e-08
6.86005e-06
8.02401e-08
6.85861e-06
9.33738e-08
6.85879e-06
1.05941e-07
6.8606e-06
1.2016e-07
6.86354e-06
1.32096e-07
1.40206e-07
6.86757e-06
7.21594e-06
-1.04976e-07
7.22629e-06
1.04741e-07
7.21789e-06
4.61401e-08
7.22226e-06
-7.93249e-08
7.22429e-06
9.38048e-09
7.21702e-06
-7.65848e-09
7.21691e-06
-5.10917e-09
7.21229e-06
4.36424e-08
7.20541e-06
4.17831e-08
7.20275e-06
3.69405e-08
7.19969e-06
5.08431e-08
7.19407e-06
5.57737e-08
7.19026e-06
5.74649e-08
7.18837e-06
6.86017e-08
7.18625e-06
8.23554e-08
7.18516e-06
9.44705e-08
7.18529e-06
1.05804e-07
7.18736e-06
1.18093e-07
7.19073e-06
1.28731e-07
1.35892e-07
7.19504e-06
7.56038e-06
-1.01134e-07
7.57261e-06
9.25172e-08
7.56416e-06
5.45895e-08
7.56588e-06
-8.10496e-08
7.5681e-06
7.16053e-09
7.55876e-06
1.68703e-09
7.5573e-06
-3.65237e-09
7.55382e-06
4.71201e-08
7.54641e-06
4.91925e-08
7.54327e-06
4.00781e-08
7.54097e-06
5.31507e-08
7.53561e-06
6.11266e-08
7.53131e-06
6.17677e-08
7.52952e-06
7.03901e-08
7.52822e-06
8.36634e-08
7.52753e-06
9.51565e-08
7.52774e-06
1.05595e-07
7.52993e-06
1.15906e-07
7.53363e-06
1.25024e-07
1.31259e-07
7.53827e-06
7.92136e-06
-9.66864e-08
7.93503e-06
7.88483e-08
7.92732e-06
6.22993e-08
7.92739e-06
-8.11196e-08
7.92906e-06
5.49415e-09
7.91718e-06
1.35647e-08
7.91394e-06
-4.14631e-10
7.91174e-06
4.93216e-08
7.90417e-06
5.67636e-08
7.90022e-06
4.40287e-08
7.8985e-06
5.48716e-08
7.89378e-06
6.58464e-08
7.88906e-06
6.6487e-08
7.88715e-06
7.23029e-08
7.88662e-06
8.4188e-08
7.88643e-06
9.53534e-08
7.88687e-06
1.0515e-07
7.88911e-06
1.13669e-07
7.89304e-06
1.21097e-07
1.26321e-07
7.89797e-06
8.29967e-06
-9.16736e-08
8.31433e-06
6.4185e-08
8.31025e-06
6.63854e-08
8.30918e-06
-8.00508e-08
8.30785e-06
6.82557e-09
8.29299e-06
2.84174e-08
8.28776e-06
4.82138e-09
8.28678e-06
5.02964e-08
8.27948e-06
6.4068e-08
8.27448e-06
4.90269e-08
8.27304e-06
5.6312e-08
8.26922e-06
6.96606e-08
8.26434e-06
7.13753e-08
8.26212e-06
7.45153e-08
8.2622e-06
8.41122e-08
8.26259e-06
9.49606e-08
8.26342e-06
1.0432e-07
8.26573e-06
1.11363e-07
8.26976e-06
1.17063e-07
1.21143e-07
8.27494e-06
8.69614e-06
-8.61531e-08
8.71273e-06
4.75944e-08
8.71366e-06
6.54547e-08
8.71265e-06
-7.90378e-08
8.70418e-06
1.52978e-08
8.68704e-06
4.55591e-08
8.6798e-06
1.20553e-08
8.67973e-06
5.03639e-08
8.67305e-06
7.07472e-08
8.66698e-06
5.51063e-08
8.66545e-06
5.78393e-08
8.66265e-06
7.24591e-08
8.65795e-06
7.60705e-08
8.65538e-06
7.7091e-08
8.65579e-06
8.37008e-08
8.65679e-06
9.39608e-08
8.65815e-06
1.02957e-07
8.66061e-06
1.08902e-07
8.66469e-06
1.12984e-07
1.1582e-07
8.67002e-06
9.11158e-06
-8.01101e-08
9.13509e-06
2.40828e-08
9.13961e-06
6.09291e-08
9.12535e-06
-6.477e-08
9.11689e-06
2.37526e-08
9.10037e-06
6.20839e-08
9.09125e-06
2.11722e-08
9.09142e-06
5.01919e-08
9.08568e-06
7.64909e-08
9.07866e-06
6.21228e-08
9.07666e-06
5.9838e-08
9.07481e-06
7.43098e-08
9.07071e-06
8.01695e-08
9.06787e-06
7.99317e-08
9.06832e-06
8.32573e-08
9.06986e-06
9.2414e-08
9.07187e-06
1.0095e-07
9.07461e-06
1.0616e-07
9.07873e-06
1.08864e-07
1.10441e-07
9.08411e-06
9.54673e-06
-7.33789e-08
9.56467e-06
6.14632e-09
9.55456e-06
7.10363e-08
9.5463e-06
-5.6514e-08
9.54781e-06
2.22441e-08
9.53411e-06
7.57814e-08
9.52304e-06
3.22454e-08
9.52268e-06
5.05506e-08
9.51812e-06
8.10495e-08
9.51051e-06
6.97397e-08
9.50771e-06
6.26376e-08
9.50659e-06
7.54303e-08
9.50341e-06
8.33405e-08
9.50058e-06
8.27666e-08
9.50077e-06
8.30689e-08
9.50275e-06
9.04344e-08
9.50543e-06
9.82662e-08
9.50858e-06
1.03009e-07
9.51278e-06
1.04662e-07
1.05046e-07
9.51818e-06
1.00026e-05
-6.58207e-08
1.00039e-05
4.80295e-09
9.99929e-06
7.56653e-08
9.99466e-06
-5.18782e-08
9.99929e-06
1.7614e-08
9.98879e-06
8.62776e-08
9.97604e-06
4.4993e-08
9.97463e-06
5.19618e-08
9.97125e-06
8.44295e-08
9.96347e-06
7.7517e-08
9.95964e-06
6.64743e-08
9.95892e-06
7.61426e-08
9.95685e-06
8.54162e-08
9.95432e-06
8.52924e-08
9.95418e-06
8.32081e-08
9.95641e-06
8.82089e-08
9.95971e-06
9.49622e-08
9.96338e-06
9.93411e-08
9.96775e-06
1.00291e-07
9.96279e-08
9.97317e-06
1.04804e-05
-5.76046e-08
1.04742e-05
1.10732e-08
1.04772e-05
7.26082e-08
1.04691e-05
-4.38072e-08
1.04723e-05
1.44677e-08
1.04646e-05
9.39265e-08
1.0451e-05
5.85917e-08
1.04482e-05
5.48228e-08
1.04459e-05
8.67557e-08
1.04384e-05
8.49911e-08
1.04335e-05
7.1383e-08
1.04328e-05
7.67926e-08
1.04318e-05
8.64154e-08
1.04299e-05
8.72595e-08
1.04296e-05
8.34994e-08
1.04318e-05
8.59268e-08
1.04356e-05
9.11809e-08
1.04399e-05
9.50992e-08
1.04445e-05
9.56265e-08
9.41746e-08
1.045e-05
1.09821e-05
-4.96953e-08
1.10147e-05
-2.15393e-08
1.09969e-05
9.03944e-08
1.09677e-05
-1.45846e-08
1.09675e-05
1.46341e-08
1.09629e-05
9.85428e-08
1.09491e-05
7.2407e-08
1.09445e-05
5.94479e-08
1.09429e-05
8.83433e-08
1.09361e-05
9.1794e-08
1.09303e-05
7.72158e-08
1.09293e-05
7.77912e-08
1.09292e-05
8.65283e-08
1.0928e-05
8.84424e-08
1.09277e-05
8.37313e-08
1.093e-05
8.36645e-08
1.09341e-05
8.70769e-08
1.09389e-05
9.02959e-08
1.0944e-05
9.05448e-08
8.86092e-08
1.09496e-05
1.15065e-05
-4.08027e-08
1.15014e-05
-1.65036e-08
1.15049e-05
8.69011e-08
1.14904e-05
-6.17745e-11
1.14889e-05
1.6182e-08
1.14852e-05
1.0223e-07
1.14713e-05
8.62846e-08
1.14648e-05
6.59613e-08
1.14635e-05
8.9586e-08
1.14578e-05
9.75772e-08
1.14515e-05
8.35119e-08
1.14498e-05
7.94561e-08
1.14503e-05
8.6069e-08
1.14501e-05
8.85767e-08
1.145e-05
8.37994e-08
1.14523e-05
8.13879e-08
1.14566e-05
8.27995e-08
1.14619e-05
8.50421e-08
1.14674e-05
8.50294e-08
8.28075e-08
1.14732e-05
1.20572e-05
-3.21915e-08
1.20544e-05
-1.3673e-08
1.20509e-05
9.03407e-08
1.20375e-05
1.33628e-08
1.20351e-05
1.85717e-08
1.20323e-05
1.05013e-07
1.20187e-05
9.99157e-08
1.20103e-05
7.43797e-08
1.20088e-05
9.10597e-08
1.20042e-05
1.02179e-07
1.19978e-05
8.99002e-08
1.19953e-05
8.19648e-08
1.1996e-05
8.54251e-08
1.19969e-05
8.7688e-08
1.19972e-05
8.34441e-08
1.19996e-05
7.90261e-08
1.2004e-05
7.83983e-08
1.20096e-05
7.94323e-08
1.20155e-05
7.90662e-08
7.66587e-08
1.20217e-05
1.26339e-05
-2.35381e-08
1.26278e-05
-7.56173e-09
1.26272e-05
9.10058e-08
1.26119e-05
2.86461e-08
1.26071e-05
2.33428e-08
1.26053e-05
1.06852e-07
1.25923e-05
1.12871e-07
1.25821e-05
8.46249e-08
1.25798e-05
9.33157e-08
1.25764e-05
1.05579e-07
1.25704e-05
9.59457e-08
1.25671e-05
8.52425e-08
1.25676e-05
8.48863e-08
1.25692e-05
8.60906e-08
1.25705e-05
8.22053e-08
1.25729e-05
7.65833e-08
1.25775e-05
7.38361e-08
1.25833e-05
7.35835e-08
1.25897e-05
7.26961e-08
7.01414e-08
1.25962e-05
1.32386e-05
-1.51845e-08
1.32406e-05
-9.60747e-09
1.32358e-05
9.58163e-08
1.32146e-05
4.98569e-08
1.32063e-05
3.16224e-08
1.32052e-05
1.07946e-07
1.31934e-05
1.24705e-07
1.31816e-05
9.64231e-08
1.31781e-05
9.68593e-08
1.31756e-05
1.08077e-07
1.31702e-05
1.01329e-07
1.31663e-05
8.90878e-08
1.31664e-05
8.4775e-08
1.31685e-05
8.40734e-08
1.31707e-05
7.99821e-08
1.31734e-05
7.38516e-08
1.31782e-05
6.90534e-08
1.31842e-05
6.76161e-08
1.31909e-05
6.59502e-08
6.32189e-08
1.31978e-05
1.38722e-05
-7.1841e-09
1.38745e-05
-1.19509e-08
1.38689e-05
1.01381e-07
1.38466e-05
7.22109e-08
1.3835e-05
4.32445e-08
1.38336e-05
1.09307e-07
1.38231e-05
1.35202e-07
1.38102e-05
1.09325e-07
1.3805e-05
1.02103e-07
1.38028e-05
1.10221e-07
1.37983e-05
1.05828e-07
1.37943e-05
9.31555e-08
1.37938e-05
8.52352e-08
1.3796e-05
8.18536e-08
1.3799e-05
7.69533e-08
1.38024e-05
7.04798e-08
1.38075e-05
6.3952e-08
1.38135e-05
6.16376e-08
1.38206e-05
5.88056e-08
5.5858e-08
1.3828e-05
1.45359e-05
6.26266e-10
1.45222e-05
1.74773e-09
1.45254e-05
9.81343e-08
1.45091e-05
8.85337e-08
1.44945e-05
5.78651e-08
1.44918e-05
1.11983e-07
1.44827e-05
1.44322e-07
1.44692e-05
1.22809e-07
1.44621e-05
1.09196e-07
1.44597e-05
1.12636e-07
1.44561e-05
1.09432e-07
1.44521e-05
9.70977e-08
1.44511e-05
8.62265e-08
1.44533e-05
7.97105e-08
1.44568e-05
7.3406e-08
1.4461e-05
6.6259e-08
1.44665e-05
5.85015e-08
1.44726e-05
5.55044e-08
1.44801e-05
5.13177e-08
4.80013e-08
1.4488e-05
1.52318e-05
7.66343e-09
1.52223e-05
1.13357e-08
1.52198e-05
1.00636e-07
1.52025e-05
1.05785e-07
1.51858e-05
7.45311e-08
1.51813e-05
1.16561e-07
1.51733e-05
1.52277e-07
1.51597e-05
1.36397e-07
1.51508e-05
1.181e-07
1.51475e-05
1.15936e-07
1.51445e-05
1.1242e-07
1.51409e-05
1.00688e-07
1.51396e-05
8.75735e-08
1.51414e-05
7.78742e-08
1.51453e-05
6.95435e-08
1.51503e-05
6.11982e-08
1.51559e-05
5.29234e-08
1.5163e-05
4.84119e-08
1.51704e-05
4.38859e-08
3.94353e-08
1.5179e-05
1.5961e-05
1.4039e-08
1.59547e-05
1.75892e-08
1.59461e-05
1.09233e-07
1.59294e-05
1.22506e-07
1.59106e-05
9.32918e-08
1.59037e-05
1.23467e-07
1.58964e-05
1.59576e-07
1.58831e-05
1.49679e-07
1.58726e-05
1.2865e-07
1.58679e-05
1.20628e-07
1.58651e-05
1.15203e-07
1.5862e-05
1.03804e-07
1.58605e-05
8.90937e-08
1.58619e-05
7.64184e-08
1.58659e-05
6.55614e-08
1.58715e-05
5.56011e-08
1.58776e-05
4.68431e-08
1.58854e-05
4.05525e-08
1.58936e-05
3.57582e-08
3.0816e-08
1.59022e-05
1.6724e-05
2.06148e-08
1.66972e-05
4.44653e-08
1.67037e-05
1.0264e-07
1.66914e-05
1.3484e-07
1.66703e-05
1.14373e-07
1.66609e-05
1.32943e-07
1.66536e-05
1.66793e-07
1.66408e-05
1.62465e-07
1.66289e-05
1.40557e-07
1.66225e-05
1.27085e-07
1.66193e-05
1.18368e-07
1.66166e-05
1.06487e-07
1.6615e-05
9.07133e-08
1.66161e-05
7.53047e-08
1.662e-05
6.1708e-08
1.66258e-05
4.97808e-08
1.66328e-05
3.9849e-08
1.66412e-05
3.21906e-08
1.66504e-05
2.64921e-08
2.19977e-08
1.66592e-05
1.75256e-05
2.54205e-08
1.75361e-05
3.39649e-08
1.7514e-05
1.24689e-07
1.74885e-05
1.60382e-07
1.74664e-05
1.3648e-07
1.74543e-05
1.4499e-07
1.74465e-05
1.74576e-07
1.74342e-05
1.74833e-07
1.74211e-05
1.53604e-07
1.74128e-05
1.35399e-07
1.74086e-05
1.22581e-07
1.74061e-05
1.08972e-07
1.74044e-05
9.24094e-08
1.74052e-05
7.44805e-08
1.74089e-05
5.80643e-08
1.74149e-05
4.37631e-08
1.74227e-05
3.20693e-08
1.74318e-05
2.31011e-08
1.74417e-05
1.65303e-08
1.17444e-08
1.7452e-05
1.83625e-05
3.12878e-08
1.83332e-05
6.32122e-08
1.83373e-05
1.20572e-07
1.83248e-05
1.72892e-07
1.83015e-05
1.59831e-07
1.82863e-05
1.6018e-07
1.82773e-05
1.83586e-07
1.82651e-05
1.87031e-07
1.82511e-05
1.67594e-07
1.82409e-05
1.45636e-07
1.82351e-05
1.28386e-07
1.82322e-05
1.11786e-07
1.82303e-05
9.43384e-08
1.82308e-05
7.39997e-08
1.82342e-05
5.46767e-08
1.82403e-05
3.76474e-08
1.82487e-05
2.36839e-08
1.82587e-05
1.31062e-08
1.82697e-05
5.54357e-09
1.30545e-10
1.82813e-05
1.92415e-05
3.61799e-08
1.92329e-05
7.18157e-08
1.92117e-05
1.4173e-07
1.91997e-05
1.84907e-07
1.91762e-05
1.83335e-07
1.91584e-05
1.77962e-07
1.91475e-05
1.94522e-07
1.9135e-05
1.9954e-07
1.91201e-05
1.82494e-07
1.91079e-05
1.57873e-07
1.91001e-05
1.36151e-07
1.90961e-05
1.15736e-07
1.90938e-05
9.66929e-08