/*--------------------------------*- C++ -*----------------------------------*\
| =========                 |                                                 |
| \\      /  F ield         | OpenFOAM: The Open Source CFD Toolbox           |
|  \\    /   O peration     | Version:  v2012                                 |
|   \\  /    A nd           | Website:  www.openfoam.com                      |
|    \\/     M anipulation  |                                                 |
\*---------------------------------------------------------------------------*/
FoamFile
{
    version     2.0;
    format      ascii;
    class       volVectorField;
    location    "4.6";
    object      U;
}
// * * * * * * * * * * * * * * * * * * * * * * * * * * * * * * * * * * * * * //

dimensions      [0 1 -1 0 0 0 0];


internalField   nonuniform List<vector> 
17600
(
(0.821564 -0.00167221 0)
(1.1778 0.00211205 0)
(0.843793 0.00251521 0)
(1.16508 0.000575582 0)
(0.846803 0.000730109 0)
(1.14022 -0.000875728 0)
(0.853291 0.000690027 0)
(1.12114 -0.000633242 0)
(0.861443 0.000989384 0)
(1.10639 -0.00124301 0)
(0.867776 0.00209987 0)
(1.0952 -0.00246335 0)
(0.869407 0.00404212 0)
(1.08864 -0.00380705 0)
(0.864516 0.00518481 0)
(1.0854 -0.00370801 0)
(0.85268 0.00460981 0)
(1.08273 -0.00282634 0)
(0.834319 0.00420989 0)
(1.07978 -0.00231772 0)
(0.832439 -0.00175999 0)
(1.16708 0.00212619 0)
(0.857298 0.00242165 0)
(1.15149 0.000773341 0)
(0.863311 0.00074106 0)
(1.12424 -0.000720352 0)
(0.871741 0.000674631 0)
(1.10236 -0.000503883 0)
(0.882995 0.000946033 0)
(1.08396 -0.00109326 0)
(0.893687 0.00203154 0)
(1.06708 -0.00225909 0)
(0.901917 0.00392467 0)
(1.0513 -0.00353379 0)
(0.908476 0.00509857 0)
(1.03318 -0.00353209 0)
(0.917488 0.00489597 0)
(1.00697 -0.0031875 0)
(0.933089 0.00564383 0)
(0.967445 -0.00372158 0)
(0.853666 -0.00184811 0)
(1.14435 0.0021159 0)
(0.882432 0.00236866 0)
(1.12611 0.000914773 0)
(0.892872 0.000797815 0)
(1.0962 -0.000602261 0)
(0.90359 0.000725311 0)
(1.07137 -0.000447266 0)
(0.917565 0.000997724 0)
(1.0503 -0.00105553 0)
(0.931139 0.00210015 0)
(1.03093 -0.00221361 0)
(0.942145 0.00398105 0)
(1.014 -0.00343901 0)
(0.951221 0.00515346 0)
(0.997765 -0.00337413 0)
(0.960176 0.004985 0)
(0.980486 -0.0028449 0)
(0.966597 0.00567931 0)
(0.964874 -0.00201731 0)
(0.882486 -0.00189577 0)
(1.11238 0.00204417 0)
(0.913061 0.00238093 0)
(1.09402 0.00095481 0)
(0.92704 0.000930832 0)
(1.06409 -0.000573535 0)
(0.937813 0.000870276 0)
(1.03969 -0.000494724 0)
(0.950574 0.00115174 0)
(1.0209 -0.00113195 0)
(0.961643 0.00227302 0)
(1.00588 -0.00228015 0)
(0.96884 0.00413153 0)
(0.995826 -0.00345268 0)
(0.973308 0.0052876 0)
(0.988435 -0.00332267 0)
(0.976182 0.00508054 0)
(0.981246 -0.00259292 0)
(0.975377 0.00561528 0)
(0.974537 -0.000611926 0)
(0.914092 -0.00189606 0)
(1.07716 0.00191926 0)
(0.942257 0.00242672 0)
(1.06224 0.000919704 0)
(0.957137 0.0011084 0)
(1.03641 -0.000589971 0)
(0.965046 0.00105486 0)
(1.01655 -0.000567386 0)
(0.973254 0.00131322 0)
(1.00373 -0.00120239 0)
(0.979187 0.00241105 0)
(0.995288 -0.00230414 0)
(0.981584 0.00419706 0)
(0.991412 -0.00340845 0)
(0.982518 0.00530849 0)
(0.988814 -0.00324137 0)
(0.982756 0.00509655 0)
(0.98476 -0.00237401 0)
(0.980531 0.00557162 0)
(0.979294 0.000597719 0)
(0.943315 -0.00185365 0)
(1.04539 0.00177908 0)
(0.965194 0.00247342 0)
(1.03663 0.000845059 0)
(0.978393 0.00127693 0)
(1.01788 -0.000603746 0)
(0.982243 0.00121733 0)
(1.00426 -0.000609182 0)
(0.985667 0.0014233 0)
(0.997228 -0.00122217 0)
(0.98763 0.00247497 0)
(0.993294 -0.00227191 0)
(0.987454 0.00417175 0)
(0.992206 -0.00331128 0)
(0.987224 0.00521718 0)
(0.991048 -0.00308676 0)
(0.986907 0.0049925 0)
(0.987753 -0.00206297 0)
(0.984588 0.00548451 0)
(0.98285 0.00172373 0)
(0.966483 -0.00178238 0)
(1.02169 0.001661 0)
(0.980459 0.00249608 0)
(1.01962 0.000760507 0)
(0.990759 0.00140057 0)
(1.00824 -0.000596858 0)
(0.991486 0.00133238 0)
(0.999954 -0.000615617 0)
(0.99195 0.00148156 0)
(0.996542 -0.00120988 0)
(0.992117 0.00249199 0)
(0.994676 -0.00221968 0)
(0.991184 0.0041089 0)
(0.994476 -0.00319822 0)
(0.990784 0.00507913 0)
(0.993717 -0.00287416 0)
(0.990373 0.00478821 0)
(0.990748 -0.00161447 0)
(0.988096 0.00529287 0)
(0.986338 0.00280978 0)
(0.982338 -0.00170091 0)
(1.00714 0.00158245 0)
(0.989377 0.00248558 0)
(1.01021 0.00068263 0)
(0.996897 0.00147188 0)
(1.00448 -0.000576114 0)
(0.996287 0.00140467 0)
(0.999705 -0.000604676 0)
(0.995674 0.00150835 0)
(0.998064 -0.00118756 0)
(0.995428 0.00248749 0)
(0.997009 -0.00216246 0)
(0.994474 0.00403185 0)
(0.997106 -0.00307614 0)
(0.994114 0.00492537 0)
(0.996511 -0.00263215 0)
(0.993646 0.00454164 0)
(0.993734 -0.00108521 0)
(0.991415 0.00503229 0)
(0.989704 0.00383405 0)
(0.991722 -0.00162468 0)
(0.999933 0.00153926 0)
(0.99429 0.00244946 0)
(1.00584 0.000615714 0)
(0.999709 0.00150221 0)
(1.00354 -0.000555111 0)
(0.999133 0.00144732 0)
(1.00086 -0.000591384 0)
(0.998497 0.00151933 0)
(1.00005 -0.00116436 0)
(0.998358 0.00247142 0)
(0.999372 -0.00210124 0)
(0.99757 0.00394071 0)
(0.999629 -0.0029355 0)
(0.997255 0.00474454 0)
(0.999141 -0.00235055 0)
(0.996691 0.00426153 0)
(0.996497 -0.000511474 0)
(0.994479 0.00474677 0)
(0.992787 0.00477155 0)
(0.996534 -0.00156084 0)
(0.997227 0.0015158 0)
(0.997135 0.00240169 0)
(1.00412 0.000558269 0)
(1.00108 0.00150792 0)
(1.00352 -0.000542419 0)
(1.0011 0.00147013 0)
(1.00215 -0.000582218 0)
(1.0008 0.00152144 0)
(1.0018 -0.00114231 0)
(1.00087 0.002446 0)
(1.00138 -0.00203557 0)
(1.00025 0.00383305 0)
(1.00176 -0.00277139 0)
(0.999957 0.00452693 0)
(1.00136 -0.0020212 0)
(0.999269 0.00394904 0)
(0.998819 8.36937e-05 0)
(0.997068 0.00446842 0)
(0.9954 0.00559064 0)
(0.998683 -0.00150932 0)
(0.996629 0.0014967 0)
(0.998971 0.00235284 0)
(1.00355 0.000507972 0)
(1.00185 0.00150198 0)
(1.00364 -0.000539843 0)
(1.00249 0.00147857 0)
(1.00314 -0.000578275 0)
(1.00254 0.00151655 0)
(1.00311 -0.00112058 0)
(1.00278 0.00241011 0)
(1.00287 -0.00196315 0)
(1.00231 0.00370583 0)
(1.00336 -0.00258169 0)
(1.00201 0.00427437 0)
(1.00303 -0.00165039 0)
(1.00122 0.00361081 0)
(1.00057 0.000701181 0)
(0.999045 0.0042339 0)
(0.997422 0.00626169 0)
(0.999534 -0.00146685 0)
(0.996746 0.00147305 0)
(1.00023 0.00230736 0)
(1.0034 0.000463017 0)
(1.00231 0.00149203 0)
(1.00367 -0.000545218 0)
(1.00338 0.001476 0)
(1.00375 -0.000578226 0)
(1.00369 0.00150455 0)
(1.00396 -0.00109714 0)
(1.00407 0.00236158 0)
(1.00388 -0.00187982 0)
(1.00369 0.00355413 0)
(1.00445 -0.00236172 0)
(1.0034 0.00398604 0)
(1.00414 -0.00124089 0)
(1.00254 0.00325396 0)
(1.00175 0.00132451 0)
(1.00043 0.00408266 0)
(0.998868 0.0067788 0)
(0.999848 -0.00142998 0)
(0.996986 0.00144218 0)
(1.00106 0.00226555 0)
(1.00338 0.000421796 0)
(1.00259 0.00148158 0)
(1.00365 -0.000555285 0)
(1.00388 0.00146481 0)
(1.00408 -0.000579706 0)
(1.00437 0.00148494 0)
(1.00447 -0.00106981 0)
(1.00483 0.0022988 0)
(1.00449 -0.00178229 0)
(1.00452 0.00337631 0)
(1.00511 -0.00211237 0)
(1.00425 0.0036666 0)
(1.00481 -0.000805035 0)
(1.00336 0.00290457 0)
(1.00247 0.00190884 0)
(1.00134 0.00403111 0)
(0.99986 0.00715118 0)
(0.99997 -0.00139638 0)
(0.997178 0.00140503 0)
(1.00159 0.00222601 0)
(1.00341 0.000382827 0)
(1.00274 0.00147162 0)
(1.0036 -0.000567237 0)
(1.00414 0.00144653 0)
(1.00423 -0.00058044 0)
(1.00472 0.00145718 0)
(1.00474 -0.00103594 0)
(1.00524 0.0022196 0)
(1.00485 -0.00166789 0)
(1.00497 0.00317416 0)
(1.00549 -0.00184065 0)
(1.00474 0.0033311 0)
(1.00517 -0.000369259 0)
(1.00387 0.00259671 0)
(1.0029 0.00242557 0)
(1.00195 0.00407788 0)
(1.00055 0.00739556 0)
(1.00003 -0.00136483 0)
(0.997305 0.00136373 0)
(1.00191 0.00218718 0)
(1.00343 0.000344814 0)
(1.00282 0.00146173 0)
(1.00355 -0.00057898 0)
(1.00425 0.00142187 0)
(1.0043 -0.000578246 0)
(1.00489 0.00141954 0)
(1.00489 -0.00099175 0)
(1.00544 0.00212106 0)
(1.00505 -0.00153433 0)
(1.00521 0.00294831 0)
(1.0057 -0.00155039 0)
(1.00503 0.00299146 0)
(1.00536 4.73459e-05 0)
(1.0042 0.00234883 0)
(1.00317 0.00285861 0)
(1.00238 0.0042124 0)
(1.00108 0.00754413 0)
(1.00008 -0.00133472 0)
(0.997387 0.00132012 0)
(1.0021 0.00214795 0)
(1.00343 0.000306904 0)
(1.00286 0.00145045 0)
(1.0035 -0.000588898 0)
(1.00431 0.00139021 0)
(1.00431 -0.000569693 0)
(1.00497 0.00136888 0)
(1.00497 -0.00093391 0)
(1.00553 0.00200249 0)
(1.00516 -0.00138285 0)
(1.00533 0.00270303 0)
(1.00581 -0.00124909 0)
(1.0052 0.00265644 0)
(1.00544 0.000445788 0)
(1.00443 0.00217357 0)
(1.00336 0.00320881 0)
(1.00272 0.00441307 0)
(1.00153 0.00763128 0)
(1.00013 -0.00130583 0)
(0.99744 0.0012759 0)
(1.00222 0.00210701 0)
(1.00342 0.000269299 0)
(1.00288 0.00143619 0)
(1.00347 -0.000595213 0)
(1.00434 0.00134958 0)
(1.00431 -0.000551848 0)
(1.00501 0.00130433 0)
(1.005 -0.000862678 0)
(1.00558 0.00186529 0)
(1.00522 -0.00121511 0)
(1.0054 0.00244275 0)
(1.00586 -0.000945422 0)
(1.00533 0.00233863 0)
(1.00547 0.000812801 0)
(1.00462 0.00207703 0)
(1.00353 0.0034913 0)
(1.00301 0.00465909 0)
(1.00194 0.00768992 0)
(1.00017 -0.00127833 0)
(0.997477 0.0012327 0)
(1.00229 0.0020631 0)
(1.0034 0.000232368 0)
(1.0029 0.00141747 0)
(1.00343 -0.000596208 0)
(1.00436 0.00129923 0)
(1.00429 -0.000524655 0)
(1.00502 0.0012267 0)
(1.00501 -0.000778757 0)
(1.0056 0.00171131 0)
(1.00525 -0.00103696 0)
(1.00544 0.00217816 0)
(1.00587 -0.000653556 0)
(1.00544 0.00205702 0)
(1.00549 0.00112572 0)
(1.00479 0.00205322 0)
(1.00369 0.00371857 0)
(1.00328 0.00492635 0)
(1.00232 0.00773714 0)
(1.00023 -0.00125225 0)
(0.997505 0.00119151 0)
(1.00233 0.00201531 0)
(1.00336 0.000196736 0)
(1.0029 0.00139258 0)
(1.00339 -0.000589908 0)
(1.00437 0.00123768 0)
(1.00426 -0.000485403 0)
(1.00503 0.00113306 0)
(1.00501 -0.000680867 0)
(1.0056 0.00154297 0)
(1.00526 -0.000855615 0)
(1.00547 0.00192082 0)
(1.00587 -0.000388893 0)
(1.00554 0.00182444 0)
(1.0055 0.00138667 0)
(1.00495 0.00209038 0)
(1.00386 0.0038995 0)
(1.00354 0.00519169 0)
(1.0027 0.00777802 0)
(1.00028 -0.0012278 0)
(0.997532 0.00115364 0)
(1.00236 0.00196179 0)
(1.00333 0.000164156 0)
(1.00291 0.00135906 0)
(1.00335 -0.00057388 0)
(1.00438 0.00116259 0)
(1.00423 -0.00043157 0)
(1.00504 0.00102281 0)
(1.005 -0.000571813 0)
(1.00561 0.00136431 0)
(1.00527 -0.00067617 0)
(1.0055 0.00167543 0)
(1.00587 -0.00015706 0)
(1.00563 0.00164174 0)
(1.00551 0.00159931 0)
(1.0051 0.00217499 0)
(1.00405 0.00405134 0)
(1.00381 0.00544808 0)
(1.00306 0.00782352 0)
(1.00033 -0.00120561 0)
(0.997563 0.00112102 0)
(1.00238 0.00190057 0)
(1.00329 0.000135927 0)
(1.00291 0.00131477 0)
(1.00332 -0.000547825 0)
(1.00439 0.00107331 0)
(1.0042 -0.000365143 0)
(1.00504 0.000899862 0)
(1.005 -0.000458256 0)
(1.00561 0.00118363 0)
(1.00527 -0.000509479 0)
(1.00553 0.00145179 0)
(1.00586 3.90067e-05 0)
(1.00572 0.00149964 0)
(1.00554 0.00177119 0)
(1.00525 0.00229728 0)
(1.00425 0.00419527 0)
(1.00407 0.00569778 0)
(1.00342 0.00788405 0)
(1.00038 -0.00118542 0)
(0.9976 0.00109427 0)
(1.00239 0.00183107 0)
(1.00326 0.000112524 0)
(1.0029 0.00125823 0)
(1.00328 -0.000510618 0)
(1.0044 0.000969043 0)
(1.00417 -0.000287393 0)
(1.00504 0.000768333 0)
(1.00499 -0.000347554 0)
(1.00561 0.00101212 0)
(1.00527 -0.000366608 0)
(1.00555 0.00125739 0)
(1.00586 0.000198411 0)
(1.00582 0.00138884 0)
(1.00558 0.00191147 0)
(1.00541 0.00244454 0)
(1.00446 0.00434423 0)
(1.00433 0.00594209 0)
(1.00378 0.00796608 0)
(1.00041 -0.0011681 0)
(0.997647 0.00107524 0)
(1.00239 0.0017512 0)
(1.00323 9.68562e-05 0)
(1.00289 0.0011879 0)
(1.00326 -0.000460734 0)
(1.0044 0.000852276 0)
(1.00415 -0.000203198 0)
(1.00504 0.000634658 0)
(1.00498 -0.000246071 0)
(1.00561 0.000854509 0)
(1.00527 -0.0002516 0)
(1.00558 0.00108801 0)
(1.00586 0.000326746 0)
(1.00591 0.0013012 0)
(1.00565 0.00202686 0)
(1.00557 0.00259684 0)
(1.0047 0.00449932 0)
(1.0046 0.0061782 0)
(1.00412 0.00807857 0)
(1.00043 -0.00115455 0)
(0.997708 0.00106619 0)
(1.00238 0.00165587 0)
(1.00322 9.11378e-05 0)
(1.00287 0.00110132 0)
(1.00323 -0.000399162 0)
(1.00439 0.000722682 0)
(1.00413 -0.000115235 0)
(1.00503 0.000502733 0)
(1.00498 -0.00015727 0)
(1.0056 0.00071285 0)
(1.00528 -0.000158307 0)
(1.0056 0.000937393 0)
(1.00587 0.000429171 0)
(1.006 0.00123077 0)
(1.00573 0.0021158 0)
(1.00574 0.0027332 0)
(1.00496 0.00464692 0)
(1.00488 0.00640566 0)
(1.00446 0.00824213 0)
(1.00044 -0.00114219 0)
(0.997783 0.00106358 0)
(1.00235 0.00154779 0)
(1.00321 8.88197e-05 0)
(1.00284 0.00100627 0)
(1.00322 -0.000334895 0)
(1.00438 0.000593551 0)
(1.00411 -4.05922e-05 0)
(1.005 0.000390936 0)
(1.00499 -9.83006e-05 0)
(1.00559 0.000607761 0)
(1.00529 -0.00010686 0)
(1.00561 0.000826094 0)
(1.0059 0.000477458 0)
(1.00609 0.00119366 0)
(1.00583 0.00214478 0)
(1.00591 0.00283821 0)
(1.00524 0.00468502 0)
(1.00517 0.00659237 0)
(1.0048 0.00843673 0)
(1.00043 -0.00113383 0)
(0.997873 0.00107261 0)
(1.00231 0.0014262 0)
(1.00322 9.5517e-05 0)
(1.00279 0.000898773 0)
(1.00321 -0.000262886 0)
(1.00435 0.000463913 0)
(1.00411 2.6079e-05 0)
(1.00497 0.000294152 0)
(1.005 -6.20451e-05 0)
(1.00556 0.000521596 0)
(1.0053 -7.71992e-05 0)
(1.00562 0.000724888 0)
(1.00592 0.000508189 0)
(1.00618 0.00114388 0)
(1.00594 0.00214466 0)
(1.00609 0.00287616 0)
(1.00555 0.00463123 0)
(1.00549 0.00660777 0)
(1.00516 0.00846163 0)
(1.0004 -0.00113083 0)
(0.997974 0.0010971 0)
(1.00226 0.00128941 0)
(1.00323 0.000109698 0)
(1.00274 0.000782994 0)
(1.00321 -0.000196779 0)
(1.00432 0.000345149 0)
(1.00411 7.25082e-05 0)
(1.00493 0.000222833 0)
(1.00501 -5.8394e-05 0)
(1.00553 0.00045211 0)
(1.00532 -6.13392e-05 0)
(1.00563 0.000622522 0)
(1.00596 0.000545518 0)
(1.00627 0.00108508 0)
(1.00607 0.00213394 0)
(1.00626 0.00295016 0)
(1.00585 0.00464917 0)
(1.00582 0.00662967 0)
(1.00555 0.00852463 0)
(1.00037 -0.00112777 0)
(0.998082 0.00112985 0)
(1.00219 0.00114153 0)
(1.00325 0.000121724 0)
(1.00268 0.000666548 0)
(1.00322 -0.000143126 0)
(1.00427 0.000247883 0)
(1.00411 9.17652e-05 0)
(1.00488 0.000177265 0)
(1.00503 -7.63757e-05 0)
(1.00549 0.000390119 0)
(1.00534 -5.86188e-05 0)
(1.00563 0.000539262 0)
(1.006 0.000574449 0)
(1.00635 0.00112999 0)
(1.00622 0.00220595 0)
(1.00644 0.0031652 0)
(1.00617 0.00477353 0)
(1.00617 0.00676267 0)
(1.00594 0.00865402 0)
(1.00033 -0.00113018 0)
(0.998189 0.00117669 0)
(1.00212 0.000983188 0)
(1.00327 0.000129925 0)
(1.00261 0.000554167 0)
(1.00322 -0.000105792 0)
(1.00422 0.000169122 0)
(1.00412 9.43672e-05 0)
(1.00482 0.000140593 0)
(1.00505 -9.05291e-05 0)
(1.00545 0.000316796 0)
(1.00536 -1.39602e-05 0)
(1.00564 0.000511006 0)
(1.00605 0.000690644 0)
(1.00644 0.00129393 0)
(1.00639 0.00241133 0)
(1.00664 0.00341418 0)
(1.0065 0.00493427 0)
(1.00653 0.00687834 0)
(1.00634 0.00875727 0)
(1.00029 -0.00113525 0)
(0.998291 0.00123264 0)
(1.00204 0.00082255 0)
(1.00329 0.000127156 0)
(1.00255 0.00045658 0)
(1.00321 -0.000102314 0)
(1.00417 0.000117209 0)
(1.00412 6.66265e-05 0)
(1.00477 0.000117182 0)
(1.00506 -0.000101908 0)
(1.00542 0.000262431 0)
(1.00537 8.93213e-05 0)
(1.00566 0.00058952 0)
(1.00612 0.000875577 0)
(1.00655 0.00147363 0)
(1.00657 0.00260348 0)
(1.00683 0.00361556 0)
(1.00682 0.00503849 0)
(1.0069 0.00689556 0)
(1.00675 0.00874315 0)
(1.00026 -0.00113992 0)
(0.998382 0.00129043 0)
(1.00197 0.00066527 0)
(1.0033 0.000108421 0)
(1.00248 0.000375478 0)
(1.0032 -0.000121579 0)
(1.00412 7.67645e-05 0)
(1.00412 3.77596e-05 0)
(1.00471 8.72953e-05 0)
(1.00507 -7.05915e-05 0)
(1.00539 0.000269984 0)
(1.0054 0.000232773 0)
(1.00568 0.000715912 0)
(1.00618 0.00103635 0)
(1.00666 0.00160205 0)
(1.00675 0.00272885 0)
(1.00703 0.00377749 0)
(1.00714 0.00512021 0)
(1.00727 0.00687029 0)
(1.00715 0.00866534 0)
(1.00024 -0.00114737 0)
(0.99846 0.00134981 0)
(1.00189 0.00052054 0)
(1.0033 5.7375e-05 0)
(1.00242 0.000320447 0)
(1.00319 -0.000168968 0)
(1.00408 4.59167e-05 0)
(1.00411 1.90358e-05 0)
(1.00466 6.4765e-05 0)
(1.00507 2.03277e-05 0)
(1.00538 0.000340282 0)
(1.00543 0.000377023 0)
(1.0057 0.000833882 0)
(1.00625 0.0011845 0)
(1.00677 0.0017096 0)
(1.00694 0.00282153 0)
(1.00724 0.0039208 0)
(1.00746 0.00521412 0)
(1.00765 0.00684169 0)
(1.00755 0.00855457 0)
(1.00023 -0.0011528 0)
(0.998523 0.00140373 0)
(1.00182 0.000399654 0)
(1.0033 -3.33042e-05 0)
(1.00237 0.000283516 0)
(1.00316 -0.000237869 0)
(1.00404 1.73185e-05 0)
(1.00409 1.93881e-05 0)
(1.00462 8.3244e-05 0)
(1.00508 0.000152421 0)
(1.00537 0.000426402 0)
(1.00545 0.000498296 0)
(1.00573 0.000936709 0)
(1.00631 0.00132942 0)
(1.00689 0.00181966 0)
(1.00714 0.00289438 0)
(1.00746 0.00403499 0)
(1.00776 0.00530417 0)
(1.00801 0.00680762 0)
(1.00795 0.00841147 0)
(1.00022 -0.00115678 0)
(0.998574 0.00144748 0)
(1.00174 0.000308625 0)
(1.00328 -0.000165856 0)
(1.00231 0.000261346 0)
(1.00312 -0.000306758 0)
(1.004 -2.1177e-05 0)
(1.00407 7.29331e-05 0)
(1.0046 0.000148034 0)
(1.00508 0.000300004 0)
(1.00535 0.000537154 0)
(1.00547 0.000603155 0)
(1.00577 0.00103026 0)
(1.00637 0.00146797 0)
(1.007 0.00194364 0)
(1.00734 0.00295421 0)
(1.0077 0.00411782 0)
(1.00806 0.00537287 0)
(1.00837 0.00676741 0)
(1.00834 0.00825007 0)
(1.00022 -0.00115844 0)
(0.998614 0.00147445 0)
(1.00166 0.000255563 0)
(1.00326 -0.000323939 0)
(1.00227 0.000237394 0)
(1.00308 -0.000371081 0)
(1.00398 -4.50533e-05 0)
(1.00405 0.000192364 0)
(1.00457 0.000237392 0)
(1.00508 0.00043686 0)
(1.00534 0.000664858 0)
(1.00549 0.000705003 0)
(1.00582 0.00111764 0)
(1.00643 0.00160346 0)
(1.00712 0.00208045 0)
(1.00755 0.00300937 0)
(1.00795 0.0041682 0)
(1.00836 0.00541006 0)
(1.00872 0.00671843 0)
(1.00872 0.00808229 0)
(1.00023 -0.00115414 0)
(0.998646 0.00147537 0)
(1.00157 0.000246088 0)
(1.00324 -0.000502879 0)
(1.00222 0.000218408 0)
(1.00303 -0.000419863 0)
(1.00397 -4.46414e-05 0)
(1.00403 0.00033381 0)
(1.00455 0.000328008 0)
(1.00508 0.000534687 0)
(1.00533 0.000784046 0)
(1.0055 0.000804277 0)
(1.00587 0.00119028 0)
(1.00651 0.00173137 0)
(1.00724 0.00222236 0)
(1.00775 0.00306717 0)
(1.00821 0.00418529 0)
(1.00867 0.00540834 0)
(1.00906 0.0066524 0)
(1.00908 0.0079113 0)
(1.00024 -0.00114323 0)
(0.998675 0.00144976 0)
(1.00147 0.000273562 0)
(1.00321 -0.00067885 0)
(1.00218 0.000204214 0)
(1.00298 -0.000417633 0)
(1.00397 -5.44274e-05 0)
(1.00402 0.000457258 0)
(1.00452 0.000409525 0)
(1.00508 0.000599552 0)
(1.00532 0.000898177 0)
(1.00551 0.000918421 0)
(1.00593 0.00125646 0)
(1.00659 0.00184238 0)
(1.00736 0.00236301 0)
(1.00795 0.00313247 0)
(1.00848 0.00417815 0)
(1.00897 0.00536982 0)
(1.00939 0.00656727 0)
(1.00943 0.00774165 0)
(1.00024 -0.0011285 0)
(0.998704 0.00139812 0)
(1.00135 0.000330505 0)
(1.00317 -0.000824419 0)
(1.00214 0.000185285 0)
(1.00292 -0.000368031 0)
(1.00397 -7.19123e-05 0)
(1.004 0.000570656 0)
(1.00449 0.00050401 0)
(1.00508 0.000654338 0)
(1.00532 0.0010121 0)
(1.00551 0.00105713 0)
(1.00599 0.00132636 0)
(1.00668 0.0019248 0)
(1.00748 0.00249412 0)
(1.00814 0.00320947 0)
(1.00874 0.00416384 0)
(1.00928 0.00530115 0)
(1.00972 0.00645695 0)
(1.00976 0.00756434 0)
(1.00025 -0.00110608 0)
(0.998736 0.00131493 0)
(1.00123 0.000409055 0)
(1.00313 -0.000936561 0)
(1.00212 0.000168038 0)
(1.00286 -0.000291679 0)
(1.00398 -8.98809e-05 0)
(1.004 0.000676197 0)
(1.00446 0.000622157 0)
(1.00509 0.000703774 0)
(1.00532 0.00111216 0)
(1.00551 0.00120952 0)
(1.00604 0.00140635 0)
(1.00678 0.0019783 0)
(1.0076 0.00260515 0)
(1.00832 0.00329933 0)
(1.00899 0.00416205 0)
(1.00959 0.00521712 0)
(1.01006 0.00632032 0)
(1.01009 0.0073695 0)
(1.00025 -0.00107543 0)
(0.998772 0.00120375 0)
(1.00111 0.000506956 0)
(1.00308 -0.00100607 0)
(1.00211 0.000146756 0)
(1.0028 -0.000190337 0)
(1.004 -0.00010014 0)
(1.00401 0.000763847 0)
(1.00442 0.000756591 0)
(1.00509 0.000748186 0)
(1.00534 0.00118627 0)
(1.00551 0.00136659 0)
(1.00609 0.00150506 0)
(1.0069 0.00201979 0)
(1.00774 0.00268673 0)
(1.0085 0.00338972 0)
(1.00923 0.00417768 0)
(1.0099 0.00513196 0)
(1.01039 0.00616287 0)
(1.01042 0.00715424 0)
(1.00025 -0.00103868 0)
(0.998815 0.00106811 0)
(1.00098 0.000613988 0)
(1.00303 -0.00103646 0)
(1.0021 0.000120574 0)
(1.00274 -5.83766e-05 0)
(1.00401 -8.78405e-05 0)
(1.00402 0.000836822 0)
(1.00438 0.000909123 0)
(1.00509 0.000805526 0)
(1.00537 0.00123898 0)
(1.00552 0.00151821 0)
(1.00613 0.00162311 0)
(1.00701 0.0020592 0)
(1.0079 0.00273311 0)
(1.00868 0.00345812 0)
(1.00946 0.00419762 0)
(1.01019 0.00505056 0)
(1.01072 0.00599157 0)
(1.01075 0.00692039 0)
(1.00025 -0.000994979 0)
(0.998866 0.000921425 0)
(1.00085 0.000704316 0)
(1.00297 -0.00103064 0)
(1.00211 9.54776e-05 0)
(1.00268 0.000103677 0)
(1.00402 -5.21856e-05 0)
(1.00406 0.000882259 0)
(1.00434 0.00106748 0)
(1.00508 0.000881678 0)
(1.00541 0.00127627 0)
(1.00554 0.00165341 0)
(1.00617 0.00175886 0)
(1.00712 0.00210293 0)
(1.00807 0.00274681 0)
(1.00887 0.00348816 0)
(1.00969 0.00420226 0)
(1.01046 0.00496555 0)
(1.01104 0.00580528 0)
(1.01107 0.00666212 0)
(1.00025 -0.000954404 0)
(0.998925 0.000767315 0)
(1.00073 0.000776441 0)
(1.0029 -0.00101223 0)
(1.00213 9.28299e-05 0)
(1.00263 0.00030589 0)
(1.00403 2.63301e-05 0)
(1.0041 0.000908009 0)
(1.0043 0.0012198 0)
(1.00507 0.000976408 0)
(1.00546 0.00129705 0)
(1.00558 0.00176438 0)
(1.0062 0.00191086 0)
(1.00722 0.00216821 0)
(1.00824 0.002747 0)
(1.00908 0.00348719 0)
(1.00991 0.00418972 0)
(1.01072 0.0048807 0)
(1.01134 0.00561624 0)
(1.01138 0.00638945 0)
(1.00025 -0.000892242 0)
(0.998992 0.000571021 0)
(1.00061 0.000813812 0)
(1.00283 -0.000984306 0)
(1.00217 0.000140518 0)
(1.00258 0.000549966 0)
(1.00403 0.000123632 0)
(1.00416 0.000908241 0)
(1.00428 0.00135317 0)
(1.00505 0.00109056 0)
(1.00552 0.00130458 0)
(1.00563 0.00183479 0)
(1.00624 0.00205402 0)
(1.00732 0.00224437 0)
(1.00842 0.00273204 0)
(1.0093 0.0034473 0)
(1.01013 0.00414442 0)
(1.01097 0.00478449 0)
(1.01162 0.00542459 0)
(1.01168 0.00610672 0)
(1.00024 -0.000842335 0)
(0.999064 0.000398361 0)
(1.00051 0.000752554 0)
(1.00276 -0.000956191 0)
(1.00223 0.00025819 0)
(1.00254 0.0008584 0)
(1.00401 0.0002735 0)
(1.00422 0.00091168 0)
(1.00427 0.00148158 0)
(1.00501 0.00124017 0)
(1.00557 0.00133128 0)
(1.00571 0.00187595 0)
(1.00628 0.00218454 0)
(1.00739 0.0023363 0)
(1.00858 0.00272214 0)
(1.00952 0.00338588 0)
(1.01037 0.00407463 0)
(1.0112 0.00468372 0)
(1.01188 0.00524505 0)
(1.01197 0.00583525 0)
(1.00023 -0.000760621 0)
(0.999135 0.000177286 0)
(1.00042 0.000742456 0)
(1.00272 -0.000870117 0)
(1.00233 0.000330739 0)
(1.0025 0.00113546 0)
(1.00397 0.000479817 0)
(1.00429 0.000940701 0)
(1.00428 0.00161109 0)
(1.00498 0.00143169 0)
(1.00562 0.0014049 0)
(1.00581 0.00191363 0)
(1.00634 0.00230686 0)
(1.00747 0.00245258 0)
(1.00874 0.00273929 0)
(1.00975 0.00332197 0)
(1.01061 0.0039849 0)
(1.01144 0.0045724 0)
(1.01213 0.00507143 0)
(1.01224 0.00557329 0)
(1.00021 -0.000658437 0)
(0.999215 2.04547e-05 0)
(1.00036 0.000847985 0)
(1.00268 -0.000708504 0)
(1.00244 0.000292647 0)
(1.00248 0.00128871 0)
(1.00392 0.000665755 0)
(1.00436 0.000932672 0)
(1.00431 0.00166731 0)
(1.00494 0.00158621 0)
(1.00567 0.0014644 0)
(1.00592 0.00190182 0)
(1.00642 0.00235798 0)
(1.00753 0.00253568 0)
(1.00888 0.00274567 0)
(1.00998 0.00323105 0)
(1.01086 0.00384898 0)
(1.01168 0.0044206 0)
(1.01236 0.00487861 0)
(1.01248 0.00530704 0)
(1.0002 -0.000676381 0)
(0.999299 0.000165253 0)
(1.0003 0.000944144 0)
(1.00262 -0.000618197 0)
(1.00255 0.000156026 0)
(1.00248 0.00132796 0)
(1.00385 0.000825017 0)
(1.00442 0.000920342 0)
(1.00435 0.00169053 0)
(1.0049 0.00174681 0)
(1.00568 0.00156376 0)
(1.00603 0.00189417 0)
(1.00652 0.00237248 0)
(1.0076 0.00259742 0)
(1.00899 0.00275205 0)
(1.01018 0.00312805 0)
(1.0111 0.0036718 0)
(1.01191 0.00421451 0)
(1.01257 0.0046415 0)
(1.0127 0.0050104 0)
(1.00019 -0.000539149 0)
(0.999394 -8.43975e-05 0)
(1.0002 0.00095996 0)
(1.00251 -0.000373926 0)
(1.00264 0.000187388 0)
(1.00249 0.00148458 0)
(1.00377 0.00110153 0)
(1.00446 0.0010132 0)
(1.00441 0.00173999 0)
(1.00486 0.00192538 0)
(1.00567 0.00171376 0)
(1.00612 0.00191239 0)
(1.00661 0.00237628 0)
(1.00765 0.00265784 0)
(1.00907 0.0027914 0)
(1.01033 0.00307096 0)
(1.01132 0.00352585 0)
(1.01213 0.00402342 0)
(1.01277 0.00442256 0)
(1.01288 0.00474487 0)
(1.00016 -0.00039847 0)
(0.999482 -0.00028594 0)
(1.00021 0.000995109 0)
(1.00246 -8.5782e-05 0)
(1.00276 0.000261389 0)
(1.00254 0.00161712 0)
(1.00369 0.00137958 0)
(1.00449 0.0011418 0)
(1.00449 0.0017828 0)
(1.00485 0.00208577 0)
(1.00565 0.00188888 0)
(1.0062 0.00196321 0)
(1.00673 0.0023737 0)
(1.00773 0.00269417 0)
(1.00915 0.00282591 0)
(1.01048 0.00302513 0)
(1.01153 0.00338289 0)
(1.01236 0.00381692 0)
(1.01297 0.00418262 0)
(1.01306 0.00446728 0)
(1.00015 -0.000381649 0)
(0.999584 -0.000135852 0)
(1.0002 0.00108193 0)
(1.00238 8.63677e-05 0)
(1.00287 0.000233946 0)
(1.00261 0.00160721 0)
(1.00361 0.00157469 0)
(1.00449 0.00125796 0)
(1.00457 0.00178683 0)
(1.00485 0.00218971 0)
(1.00561 0.00203931 0)
(1.00625 0.00201539 0)
(1.00684 0.00233701 0)
(1.00781 0.00265723 0)
(1.00921 0.00279069 0)
(1.01059 0.0029276 0)
(1.01171 0.00319131 0)
(1.01255 0.00355005 0)
(1.01315 0.0038744 0)
(1.01322 0.00412605 0)
(1.00012 -0.000291724 0)
(0.999677 -0.000113013 0)
(1.0002 0.00113474 0)
(1.00227 0.00027945 0)
(1.00295 0.000262375 0)
(1.00269 0.00160615 0)
(1.00352 0.00177199 0)
(1.00446 0.00139972 0)
(1.00464 0.00177415 0)
(1.00485 0.00223191 0)
(1.00556 0.00216084 0)
(1.00627 0.00207526 0)
(1.00692 0.00229466 0)
(1.00789 0.0025887 0)
(1.00925 0.00272727 0)
(1.01066 0.00282771 0)
(1.01184 0.00301548 0)
(1.01272 0.00329955 0)
(1.01331 0.00357612 0)
(1.01336 0.00379389 0)
(1.0001 -0.000202284 0)
(0.999768 -7.67475e-05 0)
(1.00019 0.00114181 0)
(1.00216 0.000501694 0)
(1.00301 0.000343653 0)
(1.00278 0.00161503 0)
(1.00345 0.00198496 0)
(1.0044 0.00161621 0)
(1.00469 0.00183818 0)
(1.00487 0.00230361 0)
(1.0055 0.0023286 0)
(1.00624 0.00220109 0)
(1.00698 0.00229991 0)
(1.00794 0.00252738 0)
(1.00928 0.00265036 0)
(1.0107 0.00271738 0)
(1.01193 0.00283669 0)
(1.01285 0.00304421 0)
(1.01344 0.00326302 0)
(1.01346 0.00343998 0)
(1.00009 -9.53348e-05 0)
(0.999852 -0.000141557 0)
(1.00022 0.00112235 0)
(1.00205 0.000785548 0)
(1.00306 0.000521721 0)
(1.0029 0.00167342 0)
(1.0034 0.00221347 0)
(1.00432 0.00187895 0)
(1.00471 0.00193875 0)
(1.00489 0.00234836 0)
(1.00544 0.00245264 0)
(1.00619 0.00231591 0)
(1.00699 0.00230675 0)
(1.00797 0.00244643 0)
(1.00929 0.00254097 0)
(1.01072 0.00257904 0)
(1.01198 0.0026435 0)
(1.01294 0.00278123 0)
(1.01354 0.00294082 0)
(1.01355 0.00307394 0)
(1.00006 -2.32052e-05 0)
(0.99993 -7.64755e-05 0)
(1.00027 0.0011707 0)
(1.00196 0.00105566 0)
(1.00309 0.000721367 0)
(1.00302 0.00170704 0)
(1.00337 0.00238221 0)
(1.00422 0.00212963 0)
(1.00471 0.00206346 0)
(1.00492 0.00238433 0)
(1.00539 0.00254779 0)
(1.00612 0.00243838 0)
(1.00696 0.00235213 0)
(1.00798 0.00239053 0)
(1.00929 0.00243381 0)
(1.01071 0.00243101 0)
(1.012 0.00244193 0)
(1.01299 0.00250727 0)
(1.0136 0.00260149 0)
(1.0136 0.00268366 0)
(1.00005 3.0858e-05 0)
(1.00001 7.41353e-05 0)
(1.00033 0.00121199 0)
(1.00186 0.00128695 0)
(1.00308 0.000932836 0)
(1.00313 0.00174562 0)
(1.00336 0.00251284 0)
(1.0041 0.002388 0)
(1.00466 0.00223092 0)
(1.00492 0.00243877 0)
(1.00534 0.00261239 0)
(1.00602 0.00253641 0)
(1.00688 0.00239648 0)
(1.00793 0.00233417 0)
(1.00924 0.00230384 0)
(1.01066 0.00224896 0)
(1.01197 0.00220437 0)
(1.01299 0.0022017 0)
(1.01361 0.00223078 0)
(1.0136 0.00226322 0)
(1.00004 0.000134055 0)
(1.00007 0.000132681 0)
(1.00039 0.0012043 0)
(1.00178 0.00147925 0)
(1.00305 0.00116329 0)
(1.00324 0.00181159 0)
(1.00336 0.00261197 0)
(1.00398 0.00262982 0)
(1.00457 0.00242649 0)
(1.0049 0.0025144 0)
(1.00529 0.00265255 0)
(1.0059 0.00260038 0)
(1.00675 0.00242853 0)
(1.00783 0.00227999 0)
(1.00914 0.00215938 0)
(1.01056 0.00203787 0)
(1.01189 0.00192537 0)
(1.01293 0.00185495 0)
(1.01356 0.00181673 0)
(1.01356 0.00179645 0)
(1.00002 0.000145621 0)
(1.00011 0.000363542 0)
(1.00046 0.00129955 0)
(1.00171 0.001709 0)
(1.003 0.00146524 0)
(1.00332 0.00194622 0)
(1.00338 0.00273882 0)
(1.00387 0.00288177 0)
(1.00445 0.00268082 0)
(1.00483 0.00264876 0)
(1.00521 0.00272048 0)
(1.00577 0.00266505 0)
(1.00659 0.00247502 0)
(1.00766 0.00225366 0)
(1.00898 0.00203869 0)
(1.0104 0.00183443 0)
(1.01174 0.00164775 0)
(1.01281 0.00150747 0)
(1.01346 0.00140698 0)
(1.01346 0.00133226 0)
(1.00001 0.000235025 0)
(1.00016 0.000422734 0)
(1.00051 0.00134141 0)
(1.00164 0.00191519 0)
(1.00292 0.00178489 0)
(1.00336 0.00212717 0)
(1.00341 0.00287127 0)
(1.00375 0.0031176 0)
(1.00429 0.00294759 0)
(1.00471 0.00282235 0)
(1.00509 0.00281093 0)
(1.00561 0.00273043 0)
(1.00638 0.00252274 0)
(1.00743 0.00223735 0)
(1.00874 0.00193197 0)
(1.01017 0.00162959 0)
(1.01152 0.00136223 0)
(1.01261 0.00114191 0)
(1.01329 0.000976608 0)
(1.0133 0.000843079 0)
(1 0.00031752 0)
(1.00018 0.000479678 0)
(1.0006 0.00140418 0)
(1.00161 0.00212141 0)
(1.00285 0.00212251 0)
(1.00339 0.00235599 0)
(1.00344 0.00301865 0)
(1.00365 0.00334631 0)
(1.00412 0.0032334 0)
(1.00456 0.00304844 0)
(1.00495 0.00294711 0)
(1.00542 0.00281099 0)
(1.00614 0.00256727 0)
(1.00715 0.00221634 0)
(1.00843 0.00181488 0)
(1.00986 0.00140935 0)
(1.01122 0.00104089 0)
(1.01234 0.00073471 0)
(1.01304 0.000486119 0)
(1.01307 0.000294553 0)
(1 0.000330645 0)
(1.00021 0.000748394 0)
(1.00067 0.00155719 0)
(1.00159 0.00233117 0)
(1.00276 0.00245964 0)
(1.00338 0.00262887 0)
(1.00346 0.00319097 0)
(1.00356 0.00357642 0)
(1.00393 0.00353233 0)
(1.00435 0.00331099 0)
(1.00474 0.00311682 0)
(1.00519 0.00290214 0)
(1.00584 0.00260059 0)
(1.00678 0.00218628 0)
(1.00803 0.00169306 0)
(1.00944 0.00118417 0)
(1.01083 0.000704406 0)
(1.01198 0.000299006 0)
(1.01271 -3.7214e-05 0)
(1.01277 -0.000305758 0)
(0.999996 0.000379023 0)
(1.00021 0.000965075 0)
(1.00072 0.00171176 0)
(1.00157 0.0025093 0)
(1.00266 0.00277512 0)
(1.00333 0.00292267 0)
(1.00345 0.00339796 0)
(1.00347 0.00381507 0)
(1.00372 0.00384959 0)
(1.00409 0.00361782 0)
(1.00447 0.0033418 0)
(1.00488 0.00304107 0)
(1.00547 0.0026665 0)
(1.00634 0.00217548 0)
(1.00753 0.00159048 0)
(1.00891 0.000959582 0)
(1.0103 0.000347239 0)
(1.01148 -0.000191763 0)
(1.01226 -0.000641299 0)
(1.01234 -0.00101554 0)
(0.999995 0.000434059 0)
(1.00022 0.00113083 0)