/*--------------------------------*- C++ -*----------------------------------*\
| =========                 |                                                 |
| \\      /  F ield         | OpenFOAM: The Open Source CFD Toolbox           |
|  \\    /   O peration     | Version:  v2012                                 |
|   \\  /    A nd           | Website:  www.openfoam.com                      |
|    \\/     M anipulation  |                                                 |
\*---------------------------------------------------------------------------*/
FoamFile
{
    version     2.0;
    format      ascii;
    class       volScalarField;
    location    "2.5";
    object      p;
}
// * * * * * * * * * * * * * * * * * * * * * * * * * * * * * * * * * * * * * //

dimensions      [0 2 -2 0 0 0 0];


internalField   nonuniform List<scalar> 
17600
(
5.75893e-11
-0.00129564
-0.0010883
-0.00205921
-0.00234529
-0.00383948
-0.00444754
-0.00472286
-0.00550661
-0.00526691
-0.00598087
-0.00609797
-0.00625027
-0.00619834
-0.00610328
-0.00556884
-0.00490576
-0.00344222
-0.0015243
0.00208954
1.0943e-07
-0.00129654
-0.00108767
-0.00206178
-0.00234364
-0.00384309
-0.00444558
-0.0047251
-0.00550094
-0.00526981
-0.00597784
-0.00610251
-0.006247
-0.00620561
-0.00609875
-0.00558667
-0.00489757
-0.00349463
-0.00151214
0.00180083
-2.51792e-07
-0.001298
-0.0010877
-0.00206541
-0.00234165
-0.0038485
-0.00444148
-0.00472809
-0.00549349
-0.00527403
-0.00597323
-0.00610951
-0.00624221
-0.00621596
-0.00609318
-0.0056092
-0.00488895
-0.00355569
-0.00151452
0.00139747
-1.49577e-06
-0.00130007
-0.00108897
-0.0020698
-0.00234065
-0.00385441
-0.00443648
-0.00473052
-0.00548543
-0.00527841
-0.00596877
-0.0061175
-0.00623774
-0.00622699
-0.00608871
-0.00563258
-0.00488357
-0.0036161
-0.00154688
0.000999393
-3.73046e-06
-0.00130292
-0.00109117
-0.0020753
-0.00234016
-0.00386044
-0.0044308
-0.00473201
-0.00547641
-0.00528328
-0.00596442
-0.00612656
-0.00623312
-0.0062391
-0.00608415
-0.00565787
-0.00488014
-0.00367888
-0.00161073
0.00062255
-6.9095e-06
-0.00130655
-0.00109389
-0.0020819
-0.00233947
-0.00386623
-0.00442431
-0.00473239
-0.00546667
-0.00528878
-0.0059599
-0.00613659
-0.00622804
-0.00625238
-0.00607922
-0.00568536
-0.0048792
-0.00374567
-0.00170461
0.000269049
-1.08749e-05
-0.00131082
-0.00109681
-0.00208937
-0.00233829
-0.00387147
-0.00441702
-0.0047317
-0.00545647
-0.00529468
-0.00595518
-0.00614739
-0.0062227
-0.00626664
-0.00607463
-0.00571448
-0.00488303
-0.00381624
-0.00182668
-6.53362e-05
-1.54003e-05
-0.00131554
-0.00109971
-0.00209741
-0.00233663
-0.0038761
-0.0044091
-0.0047301
-0.00544598
-0.00530079
-0.00595036
-0.00615883
-0.00621738
-0.00628166
-0.00607127
-0.00574432
-0.00489421
-0.00388932
-0.00197532
-0.000386776
-2.02711e-05
-0.00132059
-0.00110255
-0.0021058
-0.00233467
-0.0038802
-0.00440078
-0.00472779
-0.0054353
-0.00530704
-0.00594559
-0.0061708
-0.00621236
-0.00629721
-0.00606998
-0.00577399
-0.00491494
-0.00396412
-0.00214859
-0.00070138
-2.5346e-05
-0.0013259
-0.00110537
-0.00211438
-0.00233257
-0.00388393
-0.00439227
-0.0047249
-0.00542452
-0.00531333
-0.00594097
-0.00618313
-0.00620793
-0.00631287
-0.00607162
-0.00580279
-0.00494681
-0.0040408
-0.00234362
-0.00101444
-3.05637e-05
-0.00133144
-0.00110824
-0.00212306
-0.00233049
-0.00388735
-0.00438371
-0.00472146
-0.00541372
-0.00531953
-0.00593664
-0.00619562
-0.00620449
-0.00632812
-0.00607712
-0.00583029
-0.00499076
-0.00412068
-0.00255663
-0.00133
-3.59115e-05
-0.00133719
-0.00111121
-0.00213174
-0.00232852
-0.00389049
-0.0043752
-0.00471741
-0.00540301
-0.00532545
-0.00593279
-0.00620796
-0.00620248
-0.00634245
-0.00608739
-0.00585646
-0.00504704
-0.00420633
-0.00278334
-0.0016505
-4.13921e-05
-0.00134315
-0.00111431
-0.00214036
-0.00232673
-0.00389328
-0.00436688
-0.0047126
-0.00539255
-0.00533091
-0.00592967
-0.00621975
-0.00620237
-0.00635549
-0.0061031
-0.00588191
-0.00511499
-0.00430094
-0.00301982
-0.00197686
-4.70063e-05
-0.00134929
-0.00111758
-0.00214886
-0.00232521
-0.00389565
-0.00435888
-0.00470689
-0.00538251
-0.00533579
-0.00592762
-0.00623068
-0.00620463
-0.00636702
-0.00612454
-0.00590808
-0.00519323
-0.00440748
-0.00326326
-0.00230886
-5.27489e-05
-0.0013556
-0.00112105
-0.00215716
-0.00232404
-0.00389747
-0.00435139
-0.00470006
-0.00537312
-0.0053394
-0.00592696
-0.0062405
-0.00620961
-0.00637708
-0.00615155
-0.00593716
-0.00528009
-0.00452789
-0.00351225
-0.00264553
-5.86112e-05
-0.00136205
-0.00112474
-0.00216518
-0.00232333
-0.00389859
-0.00434464
-0.00469185
-0.00536468
-0.00534163
-0.00592795
-0.00624899
-0.00621746
-0.00638624
-0.00618349
-0.00597159
-0.00537449
-0.00466322
-0.00376627
-0.00298557
-6.45815e-05
-0.00136862
-0.00112871
-0.00217281
-0.00232321
-0.00389885
-0.0043389
-0.00468199
-0.00535749
-0.00534221
-0.0059308
-0.00625612
-0.006228
-0.00639561
-0.00621924
-0.00601344
-0.00547644
-0.00481344
-0.0040254
-0.00332791
-7.06471e-05
-0.00137529
-0.00113299
-0.00217994
-0.00232383
-0.00389803
-0.00433446
-0.00467016
-0.0053519
-0.00534094
-0.00593557
-0.00626217
-0.00624066
-0.00640683
-0.00625767
-0.00606389
-0.00558672
-0.00497748
-0.00428969
-0.00367176
-7.67974e-05
-0.00138201
-0.00113765
-0.00218642
-0.00232538
-0.00389588
-0.00433171
-0.00465605
-0.00534813
-0.00533779
-0.00594208
-0.00626779
-0.00625439
-0.00642171
-0.00629847
-0.00612351
-0.00570669
-0.00515403
-0.0045585
-0.00401618
-8.30239e-05
-0.00138874
-0.00114277
-0.00219207
-0.00232809
-0.00389212
-0.004331
-0.00463939
-0.00534629
-0.00533297
-0.00594978
-0.00627397
-0.00626781
-0.00644157
-0.00634242
-0.00619231
-0.00583819
-0.00534264
-0.00483068
-0.00436002
-8.93187e-05
-0.0013954
-0.00114846
-0.00219667
-0.0023322
-0.00388648
-0.00433267
-0.00462005
-0.00534629
-0.00532711
-0.00595771
-0.0062818
-0.00627954
-0.00646667
-0.00639104
-0.00626978
-0.00598298
-0.0055446
-0.00510555
-0.00470194
-9.56811e-05
-0.00140188
-0.00115485
-0.0022
-0.00233796
-0.00387863
-0.00433705
-0.004598
-0.00534786
-0.00532094
-0.00596473
-0.00629263
-0.00628895
-0.0064966
-0.00644644
-0.00635524
-0.00614176
-0.0057621
-0.00538353
-0.00504077
-0.000102149
-0.00140803
-0.00116208
-0.0022018
-0.00234572
-0.00386825
-0.00434433
-0.00457328
-0.00535065
-0.00531503
-0.00596902
-0.00630806
-0.0062965
-0.00653018
-0.00651066
-0.00644841
-0.00631411
-0.00599737
-0.00566638
-0.00537585
-0.000108817
-0.00141363
-0.00117035
-0.00220173
-0.00235582
-0.00385525
-0.0043545
-0.00454594
-0.00535367
-0.00531068
-0.0059689
-0.00632916
-0.00630329
-0.00656609
-0.00658507
-0.00654962
-0.00649914
-0.00625267
-0.00595807
-0.00570754
-0.000115664
-0.0014185
-0.00117981
-0.00219965
-0.00236834
-0.00383977
-0.00436722
-0.00451524
-0.00535512
-0.0053099
-0.00596251
-0.00635609
-0.00631061
-0.00660331
-0.00667051
-0.0066597
-0.00669342
-0.00652871
-0.00626774
-0.0060377
-0.000122762
-0.00142231
-0.00119066
-0.0021953
-0.00238348
-0.00382191
-0.00438223
-0.00448656
-0.00535411
-0.00531347
-0.00594973
-0.00638793
-0.00632062
-0.006639
-0.0067671
-0.00677964
-0.00688952
-0.00682214
-0.00660701
-0.00637401
-0.000130405
-0.00142456
-0.00120325
-0.00218833
-0.0024016
-0.00380189
-0.00440198
-0.00445748
-0.00535016
-0.00532123
-0.00593337
-0.00642103
-0.00633661
-0.00667061
-0.00687365
-0.00691173
-0.00708657
-0.00712095
-0.00695848
-0.00676032
-0.000138636
-0.00142492
-0.00121759
-0.0021789
-0.00242234
-0.00378044
-0.00441999
-0.00442995
-0.0053416
-0.00533366
-0.00591317
-0.00645453
-0.00636129
-0.00669957
-0.00698939
-0.00706376
-0.00728755
-0.00742463
-0.00732975
-0.00715
-0.000147681
-0.00142298
-0.0012336
-0.00216731
-0.00244502
-0.00375835
-0.00443764
-0.00440569
-0.00532728
-0.00535163
-0.00588747
-0.00648753
-0.00639855
-0.00673247
-0.00711422
-0.00723547
-0.0074948
-0.00773069
-0.00771533
-0.00754431
-0.000157886
-0.00141831
-0.00125117
-0.0021538
-0.00246921
-0.0037363
-0.0044544
-0.00438519
-0.0053074
-0.00537564
-0.00586194
-0.0065206
-0.00645227
-0.00677128
-0.00724315
-0.00742434
-0.00771083
-0.00803529
-0.00810654
-0.00794387
-0.000169389
-0.00141063
-0.0012698
-0.00213902
-0.00249419
-0.00371505
-0.00446997
-0.00436895
-0.00528262
-0.00540602
-0.00584257
-0.00655209
-0.00652116
-0.00681638
-0.00736932
-0.0076267
-0.00793774
-0.00833618
-0.00849716
-0.00834849
-0.000182379
-0.00139976
-0.00128874
-0.00212358
-0.00251933
-0.0036953
-0.00448443
-0.00435797
-0.00525406
-0.00544378
-0.00583186
-0.00657886
-0.00660267
-0.0068704
-0.00748964
-0.00783805
-0.00817684
-0.00863379
-0.00888299
-0.00875637
-0.000196901
-0.00138579
-0.00130702
-0.00210779
-0.00254454
-0.00367727
-0.00449859
-0.00435378
-0.00522354
-0.00549051
-0.00582965
-0.00660013
-0.00669373
-0.00693637
-0.00760473
-0.00805389
-0.00842834
-0.00892983
-0.00925963
-0.0091639
-0.00021297
-0.00136909
-0.00132354
-0.00209163
-0.00257012
-0.00366107
-0.00451311
-0.00435933
-0.00519292
-0.00554411
-0.00583631
-0.00661148
-0.00678947
-0.00701597
-0.00771655
-0.00827024
-0.00869132
-0.00922574
-0.00962439
-0.00956669
-0.000230428
-0.00135023
-0.00133756
-0.00207457
-0.00259681
-0.00364754
-0.00452847
-0.00437715
-0.00516273
-0.00559696
-0.00585281
-0.00661682
-0.00688492
-0.00710931
-0.00782775
-0.00848443
-0.00896444
-0.0095234
-0.00997642
-0.00996014
-0.000248948
-0.00133006
-0.00134854
-0.00205576
-0.00262518
-0.00363833
-0.00454534
-0.00440762
-0.0051328
-0.00564422
-0.00587964
-0.00661945
-0.00697671
-0.00721555
-0.00794184
-0.00869512
-0.00924598
-0.00982462
-0.0103158
-0.0103394
-0.000268169
-0.00130931
-0.00135657
-0.00203431
-0.0026553
-0.00363641
-0.00456363
-0.00444829
-0.00510387
-0.0056822
-0.00591634
-0.00662319
-0.00706323
-0.00733366
-0.00806227
-0.00890136
-0.00953256
-0.0101297
-0.0106429
-0.0107004
-0.000287584
-0.00128859
-0.00136296
-0.0020096
-0.00268676
-0.0036435
-0.00458205
-0.00449648
-0.00507823
-0.00570882
-0.00596124
-0.00663108
-0.00714431
-0.00746195
-0.0081913
-0.0091023
-0.00981891
-0.0104375
-0.0109594
-0.0110413
-0.000306515
-0.00126842
-0.00136951
-0.00198189
-0.0027185
-0.00366045
-0.00459969
-0.00455028
-0.00505976
-0.00572752
-0.00601174
-0.00664513
-0.00722045
-0.00759746
-0.00832948
-0.00929771
-0.0101002
-0.0107471
-0.0112686
-0.0113632
-0.000324252
-0.00124899
-0.00137814
-0.00195215
-0.00274836
-0.00368694
-0.00461712
-0.00460792
-0.00505016
-0.00573964
-0.0060654
-0.00666694
-0.00729257
-0.00773657
-0.00847589
-0.00948787
-0.0103732
-0.0110572
-0.011574
-0.0116685
-0.000340322
-0.00123022
-0.00139065
-0.00192227
-0.00277426
-0.00372223
-0.00463562
-0.00466709
-0.00504989
-0.00574763
-0.00612032
-0.00669729
-0.00736198
-0.00787608
-0.00862867
-0.00967305
-0.0106359
-0.011366
-0.0118783
-0.0119602
-0.000354505
-0.00121159
-0.00140835
-0.0018952
-0.00279491
-0.00376495
-0.00465643
-0.00472541
-0.00505859
-0.00575428
-0.00617494
-0.00673565
-0.00743004
-0.00801401
-0.00878618
-0.00985364
-0.0108862
-0.01167
-0.0121818
-0.0122417
-0.000366829
-0.00119219
-0.00143183
-0.00187492
-0.0028102
-0.00381269
-0.00468057
-0.00478112
-0.00507507
-0.00576175
-0.00622848
-0.00678072
-0.00749755
-0.00814952
-0.00894761
-0.0100306
-0.0111217
-0.0119636
-0.0124827
-0.0125161
-0.000377542
-0.00117109
-0.00146356
-0.00186563
-0.00282074
-0.003863
-0.00470891
-0.00483361
-0.00509722
-0.00577121
-0.00628102
-0.00683122
-0.00756459
-0.00828192
-0.00911266
-0.0102052
-0.0113408
-0.0122405
-0.0127765
-0.0127851
-0.000386901
-0.00114753
-0.00149874
-0.00187053
-0.00282799
-0.0039144
-0.00474222
-0.0048837
-0.00512239
-0.00578262
-0.00633282
-0.00688625
-0.00763083
-0.00840982
-0.00928022
-0.0103788
-0.011544
-0.012496
-0.0130577
-0.0130483
-0.000395407
-0.0011214
-0.00153871
-0.00189193
-0.00283404
-0.00395852
-0.0047791
-0.00493263
-0.00514862
-0.00579508
-0.00638377
-0.00694532
-0.00769608
-0.00853097
-0.00944713
-0.0105519
-0.0117334
-0.0127284
-0.013321
-0.0133028
-0.000404097
-0.0010933
-0.00158168
-0.00193023
-0.00284096
-0.0039982
-0.00482191
-0.00498172
-0.00517554
-0.00580732
-0.00643305
-0.00700781
-0.00776034
-0.00864299
-0.00960918
-0.0107242
-0.0119123
-0.0129381
-0.0135618
-0.0135438
-0.000414169
-0.00106486
-0.00162491
-0.0019846
-0.00285265
-0.00403213
-0.00486829
-0.00503295
-0.00520353
-0.00581856
-0.0064793
-0.0070724
-0.00782349
-0.008744
-0.00976228
-0.0108943
-0.0120834
-0.0131273
-0.0137773
-0.0137656
-0.000426398
-0.00103814
-0.00166736
-0.00205365
-0.00287128
-0.00405951
-0.00491655
-0.00508793
-0.00523283
-0.00582859
-0.00652141
-0.00713723
-0.00788506
-0.00883269
-0.00990239
-0.0110594
-0.0122484
-0.0132987
-0.0139664
-0.013963
-0.00044137
-0.0010133
-0.00170955
-0.0021355
-0.00289933
-0.00408085
-0.00496448
-0.00514757
-0.00526399
-0.00583688
-0.00655886
-0.00720053
-0.00794421
-0.00890799
-0.0100251
-0.011215
-0.0124071
-0.0134553
-0.0141304
-0.014133
-0.000460502
-0.000993828
-0.00174932
-0.00222738
-0.00293941
-0.00409797
-0.00500944
-0.00521157
-0.00529827
-0.00584246
-0.00659077
-0.00726115
-0.00800017
-0.00896894
-0.0101256
-0.011355
-0.0125577
-0.0136001
-0.0142723
-0.0142754
-0.00048568
-0.000981411
-0.00178533
-0.00232557
-0.00299348
-0.00411385
-0.00504947
-0.00527823
-0.0053371
-0.0058449
-0.00661483
-0.00731806
-0.00805282
-0.00901515
-0.0101996
-0.0114719
-0.0126953
-0.0137343
-0.0143965
-0.0143921
-0.000517934
-0.000977558
-0.00181772
-0.00242733
-0.003062
-0.00413173
-0.00508434
-0.00534586
-0.00538077
-0.00584418
-0.0066275
-0.00736878
-0.00810298
-0.009048
-0.0102451
-0.0115571
-0.0128116
-0.0138558
-0.0145058
-0.0144866
-0.000557443
-0.000983541
-0.00184957
-0.00253113
-0.00314438
-0.00415434
-0.00511456
-0.00541317
-0.00542867
-0.00584023
-0.00662535
-0.00740827
-0.00815046
-0.0090707
-0.0102622
-0.0116038
-0.0128957
-0.0139572
-0.0146
-0.0145628
-0.000604622
-0.00100111
-0.00188368
-0.00263546
-0.00323947
-0.00418397
-0.00514066
-0.00547931
-0.00548062
-0.00583327
-0.00660583
-0.00742956
-0.00819099
-0.00908579
-0.0102539
-0.011609
-0.0129374
-0.014026
-0.0146736
-0.0146219
-0.000660761
-0.00103167
-0.00192163
-0.00273973
-0.00334599
-0.00422255
-0.00516313
-0.00554277
-0.00553692
-0.00582443
-0.00656748
-0.00742529
-0.00821618
-0.00909205
-0.0102242
-0.0115732
-0.0129294
-0.014051
-0.0147164
-0.0146596
-0.000727245
-0.00107616
-0.00196619
-0.00284418
-0.00346282
-0.00427174
-0.00518278
-0.00560095
-0.00559687
-0.00581621
-0.00651073
-0.00738955
-0.00821602
-0.00908335
-0.0101748
-0.0114986
-0.0128676
-0.0140227
-0.0147149
-0.0146668
-0.00080534
-0.00113597
-0.00201965
-0.00294909
-0.00358889
-0.00433328
-0.0052014
-0.00565128
-0.00565795
-0.00581096
-0.00643833
-0.00731893
-0.00818056
-0.00904964
-0.0101019
-0.0113869
-0.0127512
-0.0139341
-0.0146597
-0.0146311
-0.0008967
-0.00121241
-0.00208354
-0.00305607
-0.00372379
-0.00440864
-0.00522134
-0.00569234
-0.00571634
-0.00580904
-0.00635394
-0.00721252
-0.00810078
-0.00897868
-0.00999712
-0.0112353
-0.0125798
-0.0137802
-0.0145417
-0.0145437
-0.00100284
-0.00130649
-0.00216114
-0.00316712
-0.00386749
-0.00449885
-0.0052449
-0.00572374
-0.00576835
-0.00580858
-0.00626029
-0.00707116
-0.00796923
-0.00885782
-0.00984847
-0.0110366
-0.0123487
-0.0135555
-0.0143523
-0.0143939
-0.00112526
-0.00141957
-0.00225511
-0.00328408
-0.00401969
-0.00460547
-0.00527499
-0.00574589
-0.00581094
-0.00580644
-0.0061587
-0.0068962
-0.00778059
-0.00867465
-0.00964141
-0.0107786
-0.0120482
-0.0132499
-0.0140788
-0.0141697
-0.00126622
-0.00155339
-0.00236803
-0.00340905
-0.00417989
-0.0047296
-0.00531579
-0.00576056
-0.00584193
-0.00580026
-0.00604924
-0.0066896
-0.00753192
-0.00841664
-0.009358
-0.0104427
-0.0116619
-0.012846
-0.013696
-0.0138372
-0.00142806
-0.00171014
-0.0025029
-0.00354399
-0.00434736
-0.00487107
-0.00537267
-0.00577211
-0.00586093
-0.00578903
-0.0059324
-0.00645333
-0.00722093
-0.00807059
-0.00897592
-0.010004
-0.0111632
-0.0123135
-0.0131758
-0.0133696
-0.00161388
-0.00189143
-0.00266235
-0.00369191
-0.00452148
-0.00502918
-0.00544939
-0.00578731
-0.00587087
-0.00577334
-0.00581157
-0.00619027
-0.00684431
-0.00762146
-0.00846857
-0.00942646
-0.0105129
-0.0116145
-0.0124807
-0.0127321
-0.00182892
-0.00210028
-0.00284829
-0.00385642
-0.00470273
-0.0052018
-0.00554748
-0.00581372
-0.00587716
-0.00575752
-0.00569693
-0.00590928
-0.00640152
-0.00705399
-0.00780232
-0.00865952
-0.00964752
-0.0106882
-0.0115544
-0.0118776
-0.00207849
-0.00234128
-0.00306231
-0.0040409
-0.00489285
-0.00538565
-0.00566734
-0.00585838
-0.00588724
-0.00574685
-0.00560562
-0.00563754
-0.00590835
-0.00635854
-0.00692961
-0.00762699
-0.00846929
-0.00941913
-0.0102913
-0.0107292
-0.00236627
-0.00261893
-0.00330612
-0.00425144
-0.00509367
-0.00557823
-0.00580757
-0.00592644
-0.00591267
-0.00574351
-0.00554283
-0.00543063
-0.00543237
-0.00554556
-0.00579311
-0.00620067
-0.00680248
-0.00759294
-0.0084878
-0.00914774
-0.0026844
-0.00292741
-0.00360025
-0.00449948
-0.00530889
-0.00577656
-0.00596361
-0.00602141
-0.00596935
-0.00575671
-0.0054957
-0.00531088
-0.00513807
-0.00484487
-0.0043881
-0.00393641
-0.00377746
-0.00410586
-0.0048465
-0.00575617
-0.00303489
-0.00327903
-0.00394522
-0.00478765
-0.00553837
-0.00597616
-0.00612664
-0.00614061
-0.00606704
-0.00583714
-0.00544565
-0.00509949
-0.00505817
-0.00506539
-0.00443646
-0.00303715
-0.00153021
-0.000420779
0.000248619
0.000535005
-0.0034553
-0.00369525
-0.00432207
-0.00509736
-0.00577498
-0.00616723
-0.0062853
-0.00626256
-0.00616262
-0.00600701
-0.00557756
-0.00446342
-0.00310186
-0.00192017
-0.000956813
-3.54987e-05
0.000974783
0.00199375
0.00276755
0.00295021
-0.00396142
-0.0041806
-0.00473416
-0.00541777
-0.00600224
-0.00632986
-0.00640816
-0.00635586
-0.0060278
-0.00505881
-0.0038076
-0.00263828
-0.00171511
-0.000944078
-0.000144125
0.000808269
0.00189738
0.00296466
0.00374183
0.00385513
-0.00455564
-0.00472863
-0.00520694
-0.00574425
-0.00615325
-0.00640252
-0.00631544
-0.00563704
-0.00474198
-0.00386319
-0.00306597
-0.00231711
-0.0014985
-0.000563783
0.000498089
0.00166544
0.00286941
0.00396882
0.00471809
0.00476058
-0.00527282
-0.00534729
-0.00572046
-0.00606912
-0.00606662
-0.00575873
-0.00530758
-0.00477962
-0.00423094
-0.00365987
-0.00297943
-0.00212807
-0.00110376
4.29307e-05
0.00127107
0.00254046
0.00378217
0.00486053
0.00554668
0.00549928
-0.00612528
-0.00621631
-0.00602483
-0.0057616
-0.00547891
-0.00518444
-0.00486879
-0.00450606
-0.00403877
-0.00342875
-0.00263983
-0.00166954
-0.000556985
0.000661921
0.0019509
0.00326104
0.0045089
0.00555367
0.00617284
0.00603497
-0.00682092
-0.00675364
-0.00625561
-0.00565498
-0.00518803
-0.00485819
-0.00456462
-0.00420974
-0.00372164
-0.00306079
-0.00222119
-0.00121624
-7.16951e-05
0.00117918
0.00249106
0.00380597
0.00503614
0.0060414
0.00660273
0.00639513
-0.0073431
-0.00716523
-0.00653447
-0.00574649
-0.00507471
-0.00459855
-0.00423549
-0.00384783
-0.00334384
-0.00267778
-0.00183546
-0.000824412
0.000330379
0.00159193
0.00291163
0.00422514
0.00543987
0.00641453
0.00693275
0.00667427
-0.00777496
-0.00752322
-0.00678557
-0.00585221
-0.00500843
-0.00438224
-0.00392251
-0.00349849
-0.00299458
-0.00233912
-0.0015056
-0.000497836
0.00065935
0.0019263
0.00324993
0.00456096
0.00576322
0.0067144
0.00719995
0.0069031
-0.00812543
-0.0078174
-0.00699239
-0.00594492
-0.00496914
-0.0042204
-0.00367541
-0.00321135
-0.00269965
-0.00205436
-0.00123477
-0.000235484
0.000921417
0.00219114
0.00351606
0.00482373
0.00601577
0.00694923
0.00741079
0.00708622
-0.00838919
-0.00804471
-0.00715111
-0.00602351
-0.00496079
-0.00412494
-0.00351021
-0.00300205
-0.00246806
-0.00181209
-0.000988848
8.50276e-06
0.00115859
0.00242136
0.00373969
0.00503917
0.00622003
0.00713913
0.00758356
0.00723997
-0.0085518
-0.00819394
-0.00727201
-0.00610461
-0.00499726
-0.00411614
-0.00345746
-0.00291214
-0.00235099
-0.00167511
-0.000832715
0.000182477
0.0013451
0.00261103
0.00392387
0.00521279
0.00638173
0.0072906
0.00772753
0.00737864
0.00610615
0.00141326
-0.00577878
-0.0109226
-0.0119687
-0.010664
-0.00912589
-0.00807174
-0.00746711
-0.00713626
-0.00696325
-0.00689161
-0.00688529
-0.00691535
-0.00696255
-0.00701679
-0.0070746
-0.00713736
-0.00720612
-0.00727702
-0.00734493
-0.00741004
-0.00747739
-0.0075507
-0.00762914
-0.00770984
-0.00779123
-0.00787337
-0.00795659
-0.0080404
-0.00812395
-0.00820674
-0.00828844
-0.00836836
-0.0084458
-0.0085206
-0.00859324
-0.00866431
-0.00873365
-0.00880092
-0.00886587
-0.00892878
-0.00898991
-0.00904935
-0.00910707
-0.00916315
-0.00921766
-0.00927079
-0.00932229
-0.00937221
-0.00942079
-0.00946847
-0.00951534
-0.00956133
-0.00960627
-0.00965035
-0.00969356
-0.00973592
-0.00977733
-0.00981784
-0.00985754
-0.00989653
-0.00993473
-0.00997197
-0.0100083
-0.0100441
-0.0100795
-0.0101143
-0.0101485
-0.0101821
-0.0102154
-0.0102485
-0.0102813
-0.0103136
-0.0103457
-0.0103778
-0.0104103
-0.0104429
-0.0104754
-0.0105076
-0.0105399
-0.0105722
-0.0106047
-0.0106368
-0.0106686
-0.0106999
-0.0107309
-0.0107618
-0.0107925
-0.0108231
-0.0108536
-0.0108838
-0.0109138
-0.0109439
-0.0109737
-0.0110032
-0.0110322
-0.0110607
-0.0110889
-0.0111168
-0.0111444
-0.0111718
-0.0111989
-0.0112258
-0.0112527
-0.0112794
-0.0113058
-0.0113317
-0.0113575
-0.0113829
-0.0114081
-0.0114329
-0.0114576
-0.0114822
-0.0115066
-0.0115311
-0.011555
-0.0115787
-0.0116017
-0.0116248
-0.0116473
-0.0116697
-0.0116917
-0.0117139
-0.0117358
-0.0117576
-0.0117792
-0.0118003
-0.0118215
-0.0118419
-0.0118627
-0.0118828
-0.0119035
-0.0119236
-0.0119442
-0.0119641
-0.0119838
-0.0120031
-0.012022
-0.0120409
-0.0120594
-0.0120782
-0.0120964
-0.0121145
-0.0121315
-0.0121484
-0.012165
-0.0121814
-0.0121978
-0.0122132
-0.012229
-0.0122433
-0.0122579
-0.0122711
-0.0122847
-0.0122974
-0.0123098
-0.0123218
-0.0123319
-0.0123425
-0.0123514
-0.0123616
-0.0123693
-0.0123773
-0.0123839
-0.0123898
-0.0123958
-0.0123995
-0.0124042
-0.0124059
-0.0124089
-0.0124092
-0.0124094
-0.0124084
-0.0124059
-0.0124041
-0.0123991
-0.0123954
-0.0123878
-0.012381
-0.012373
-0.0123634
-0.0123554
-0.0123411
-0.01233
-0.0123149
-0.0123012
-0.0122869
-0.0122667
-0.0122496
-0.012227
-0.0122101
-0.0121856
-0.012161
-0.0121336
-0.0121043
-0.0120784
-0.0120391
-0.0120025
-0.0119769
0.00538473
0.0012295
-0.00570293
-0.0107852
-0.0118863
-0.0106248
-0.00910129
-0.0080544
-0.00745472
-0.00712698
-0.00695584
-0.00688541
-0.00687994
-0.00691062
-0.0069583
-0.00701291
-0.00707102
-0.00713404
-0.00720304
-0.00727416
-0.00734228
-0.00740756
-0.00747506
-0.00754853
-0.0076271
-0.00770793
-0.00778944
-0.0078717
-0.00795501
-0.00803892
-0.00812256
-0.00820543
-0.00828719
-0.00836719
-0.00844469
-0.00851955
-0.00859224
-0.00866336
-0.00873275
-0.00880006
-0.00886505
-0.00892799
-0.00898916
-0.00904863
-0.00910638
-0.00916248
-0.00921702
-0.00927017
-0.0093217
-0.00937164
-0.00942024
-0.00946794
-0.00951483
-0.00956083
-0.00960579
-0.00964988
-0.00969311
-0.00973548
-0.00977691
-0.00981743
-0.00985714
-0.00989614
-0.00993436
-0.00997161
-0.010008
-0.0100437
-0.0100791
-0.0101139
-0.0101482
-0.0101818
-0.0102151
-0.0102482
-0.010281
-0.0103133
-0.0103454
-0.0103776
-0.01041
-0.0104426
-0.0104752
-0.0105074
-0.0105397
-0.010572
-0.0106044
-0.0106366
-0.0106684
-0.0106997
-0.0107307
-0.0107616
-0.0107923
-0.010823
-0.0108534
-0.0108836
-0.0109137
-0.0109437
-0.0109735
-0.011003
-0.011032
-0.0110606
-0.0110888
-0.0111166
-0.0111443
-0.0111716
-0.0111988
-0.0112257
-0.0112526
-0.0112792
-0.0113056
-0.0113316
-0.0113573
-0.0113828
-0.0114079
-0.0114328
-0.0114575
-0.0114821
-0.0115065
-0.011531
-0.0115549
-0.0115786
-0.0116016
-0.0116247
-0.0116472
-0.0116697
-0.0116917
-0.0117138
-0.0117358
-0.0117576
-0.0117791
-0.0118002
-0.0118214
-0.0118419
-0.0118626
-0.0118828
-0.0119034
-0.0119236
-0.0119441
-0.011964
-0.0119838
-0.012003
-0.0120219
-0.0120408
-0.0120593
-0.0120782
-0.0120963
-0.0121144
-0.0121314
-0.0121483
-0.012165
-0.0121814
-0.0121977
-0.0122132
-0.012229
-0.0122432
-0.0122578
-0.0122711
-0.0122846
-0.0122974
-0.0123097
-0.0123218
-0.0123318
-0.0123425
-0.0123514
-0.0123615
-0.0123693
-0.0123773
-0.0123839
-0.0123898
-0.0123957
-0.0123995
-0.0124042
-0.0124059
-0.0124089
-0.0124092
-0.0124094
-0.0124083
-0.0124059
-0.012404
-0.0123991
-0.0123954
-0.0123878
-0.012381
-0.012373
-0.0123634
-0.0123554
-0.0123411
-0.01233
-0.0123148
-0.0123012
-0.0122869
-0.0122667
-0.0122496
-0.0122269
-0.01221
-0.0121856
-0.012161
-0.0121336
-0.0121043
-0.0120784
-0.0120391
-0.0120024
-0.0119769
0.00462206
0.00104094
-0.00553548
-0.0105263
-0.0117373
-0.0105663
-0.00906972
-0.00802991
-0.0074354
-0.00711229
-0.00694469
-0.00687676
-0.00687302
-0.00690488
-0.0069534
-0.00700863
-0.00706721
-0.00713058
-0.00719984
-0.00727119
-0.00733952
-0.007405
-0.00747267
-0.00754629
-0.00762502
-0.00770598
-0.00778761
-0.00786998
-0.0079534
-0.00803741
-0.00812114
-0.0082041
-0.00828594
-0.00836601
-0.00844358
-0.00851851
-0.00859125
-0.00866241
-0.00873185
-0.0087992
-0.00886423
-0.00892721
-0.00898842
-0.00904792
-0.0091057
-0.00916183
-0.00921639
-0.00926957
-0.00932112
-0.00937108
-0.00941971
-0.00946742
-0.00951433
-0.00956035
-0.00960532
-0.00964943
-0.00969267
-0.00973505
-0.00977649
-0.00981703
-0.00985675
-0.00989577
-0.00993399
-0.00997125
-0.0100076
-0.0100434
-0.0100788
-0.0101136
-0.0101478
-0.0101815
-0.0102149
-0.0102479
-0.0102807
-0.010313
-0.0103452
-0.0103773
-0.0104098
-0.0104424
-0.010475
-0.0105072
-0.0105394
-0.0105718
-0.0106042
-0.0106364
-0.0106682
-0.0106995
-0.0107306
-0.0107614
-0.0107921
-0.0108228
-0.0108532
-0.0108835
-0.0109135
-0.0109435
-0.0109734
-0.0110029
-0.0110319
-0.0110604
-0.0110886
-0.0111165
-0.0111442
-0.0111715
-0.0111987
-0.0112256
-0.0112525
-0.0112791
-0.0113055
-0.0113315
-0.0113572
-0.0113827
-0.0114078
-0.0114327
-0.0114573
-0.011482
-0.0115064
-0.0115309
-0.0115548
-0.0115785
-0.0116015
-0.0116246
-0.0116471
-0.0116696
-0.0116916
-0.0117137
-0.0117357
-0.0117575
-0.0117791
-0.0118002
-0.0118213
-0.0118418
-0.0118625
-0.0118827
-0.0119034
-0.0119235
-0.0119441
-0.011964
-0.0119837
-0.0120029
-0.0120219
-0.0120408
-0.0120593
-0.0120781
-0.0120963
-0.0121144
-0.0121314
-0.0121483
-0.0121649
-0.0121813
-0.0121977
-0.0122131
-0.0122289
-0.0122432
-0.0122578
-0.012271
-0.0122846
-0.0122973
-0.0123097
-0.0123217
-0.0123318
-0.0123424
-0.0123513
-0.0123615
-0.0123692
-0.0123773
-0.0123838
-0.0123898
-0.0123957
-0.0123994
-0.0124042
-0.0124058
-0.0124088
-0.0124092
-0.0124094
-0.0124083
-0.0124058
-0.012404
-0.012399
-0.0123954
-0.0123878
-0.0123809
-0.012373
-0.0123634
-0.0123553
-0.0123411
-0.01233
-0.0123148
-0.0123012
-0.0122868
-0.0122666
-0.0122495
-0.0122269
-0.01221
-0.0121856
-0.012161
-0.0121336
-0.0121043
-0.0120784
-0.0120391
-0.0120024
-0.0119768
0.00389932
0.000873231
-0.00530009
-0.0101837
-0.0115299
-0.0104831
-0.00902487
-0.00799295
-0.00740481
-0.00708888
-0.00692737
-0.00686385
-0.00686308
-0.00689695
-0.00694689
-0.00700318
-0.00706256
-0.00712649
-0.00719613
-0.00726776
-0.00733633
-0.00740205
-0.00746995
-0.00754378
-0.00762266
-0.00770376
-0.00778552
-0.00786802
-0.00795158
-0.00803571
-0.00811956
-0.00820261
-0.00828455
-0.0083647
-0.00844236
-0.00851736
-0.00859017
-0.00866139
-0.00873089
-0.00879829
-0.00886337
-0.00892639
-0.00898763
-0.00904717
-0.00910499
-0.00916115
-0.00921574
-0.00926895
-0.00932052
-0.00937051
-0.00941915
-0.00946689
-0.00951382
-0.00955986
-0.00960484
-0.00964897
-0.00969222
-0.00973462
-0.00977608
-0.00981663
-0.00985636
-0.00989539
-0.00993362
-0.00997089
-0.0100073
-0.0100431
-0.0100785
-0.0101133
-0.0101475
-0.0101812
-0.0102146
-0.0102476
-0.0102804
-0.0103128
-0.0103449
-0.0103771
-0.0104095
-0.0104422
-0.0104747
-0.010507
-0.0105392
-0.0105716
-0.010604
-0.0106362
-0.010668
-0.0106993
-0.0107304
-0.0107612
-0.010792
-0.0108226
-0.010853
-0.0108833
-0.0109133
-0.0109434
-0.0109732
-0.0110027
-0.0110318
-0.0110603
-0.0110885
-0.0111164
-0.011144
-0.0111714
-0.0111985
-0.0112255
-0.0112524
-0.011279
-0.0113054
-0.0113314
-0.0113571
-0.0113825
-0.0114077
-0.0114326
-0.0114572
-0.0114819
-0.0115063
-0.0115308
-0.0115547
-0.0115784
-0.0116014
-0.0116245
-0.011647
-0.0116695
-0.0116915
-0.0117136
-0.0117356
-0.0117574
-0.011779
-0.0118001
-0.0118212
-0.0118417
-0.0118625
-0.0118826
-0.0119033
-0.0119234
-0.011944
-0.0119639
-0.0119836
-0.0120029
-0.0120218
-0.0120407
-0.0120592
-0.012078
-0.0120962
-0.0121143
-0.0121313
-0.0121482
-0.0121649
-0.0121813
-0.0121976
-0.0122131
-0.0122289
-0.0122431
-0.0122577
-0.012271
-0.0122845
-0.0122973
-0.0123096
-0.0123217
-0.0123318
-0.0123424
-0.0123513
-0.0123615
-0.0123692
-0.0123772
-0.0123838
-0.0123897
-0.0123957
-0.0123994
-0.0124041
-0.0124058
-0.0124088
-0.0124091
-0.0124093
-0.0124083
-0.0124058
-0.012404
-0.012399
-0.0123954
-0.0123878
-0.0123809
-0.012373
-0.0123634
-0.0123553
-0.012341
-0.0123299
-0.0123148
-0.0123012
-0.0122868
-0.0122666
-0.0122495
-0.0122269
-0.01221
-0.0121856
-0.0121609
-0.0121336
-0.0121043
-0.0120784
-0.0120391
-0.0120024
-0.0119768
0.00320872
0.000697277
-0.00504547
-0.00981051
-0.0112961
-0.0103881
-0.00897311
-0.00794662
-0.00736365
-0.0070561
-0.00690265
-0.00684527
-0.00684876
-0.00688557
-0.00693766
-0.00699562
-0.00705631
-0.00712117
-0.00719137
-0.00726334
-0.00733222
-0.00739828
-0.00746653
-0.00754062
-0.00761971
-0.00770096
-0.00778287
-0.00786553
-0.00794925
-0.00803355
-0.00811755
-0.00820073
-0.00828278
-0.00836304
-0.00844081
-0.00851592
-0.00858882
-0.00866014
-0.00872971
-0.00879718
-0.00886231
-0.00892538
-0.00898669
-0.00904628
-0.00910414
-0.00916034
-0.00921497
-0.00926822
-0.00931982
-0.00936984
-0.00941852
-0.00946628
-0.00951324
-0.0095593
-0.00960431
-0.00964845
-0.00969173
-0.00973414
-0.00977561
-0.00981618
-0.00985592
-0.00989496
-0.00993321
-0.0099705
-0.0100069
-0.0100427
-0.0100781
-0.0101129
-0.0101472
-0.0101808
-0.0102142
-0.0102473
-0.0102801
-0.0103125
-0.0103446
-0.0103768
-0.0104093
-0.0104419
-0.0104745
-0.0105067
-0.010539
-0.0105714
-0.0106038
-0.010636
-0.0106678
-0.0106991
-0.0107302
-0.010761
-0.0107918
-0.0108224
-0.0108529
-0.0108831
-0.0109132
-0.0109432
-0.0109731
-0.0110026
-0.0110316
-0.0110601
-0.0110883
-0.0111162
-0.0111439
-0.0111712
-0.0111984
-0.0112253
-0.0112522
-0.0112789
-0.0113053
-0.0113312
-0.011357
-0.0113824
-0.0114076
-0.0114325
-0.0114571
-0.0114818
-0.0115062