/*--------------------------------*- C++ -*----------------------------------*\
| =========                 |                                                 |
| \\      /  F ield         | OpenFOAM: The Open Source CFD Toolbox           |
|  \\    /   O peration     | Version:  v2012                                 |
|   \\  /    A nd           | Website:  www.openfoam.com                      |
|    \\/     M anipulation  |                                                 |
\*---------------------------------------------------------------------------*/
FoamFile
{
    version     2.0;
    format      ascii;
    class       surfaceScalarField;
    location    "2.5";
    object      phi;
}
// * * * * * * * * * * * * * * * * * * * * * * * * * * * * * * * * * * * * * //

dimensions      [0 3 -1 0 0 0 0];
oriented        oriented;


internalField   nonuniform List<scalar> 
34900
(
1.17044e-06
1.54872e-07
1.16454e-06
-3.11435e-07
1.17101e-06
4.08679e-07
1.15496e-06
-4.99515e-07
1.16878e-06
4.85373e-07
1.14726e-06
-3.7454e-07
1.16027e-06
1.55314e-07
1.14712e-06
-6.66929e-08
1.15718e-06
-1.00941e-08
1.14888e-06
2.65799e-08
1.15862e-06
4.24251e-08
1.15017e-06
2.42195e-08
1.15929e-06
7.98849e-08
1.14917e-06
3.45728e-08
1.15773e-06
8.03129e-08
1.14553e-06
2.90376e-08
1.15325e-06
7.9688e-08
1.13965e-06
2.47816e-08
1.14215e-06
9.06423e-08
3.0012e-08
1.10552e-06
1.22405e-06
1.55084e-07
1.21923e-06
-3.0662e-07
1.22267e-06
4.05246e-07
1.20768e-06
-4.84528e-07
1.21803e-06
4.7502e-07
1.19974e-06
-3.5625e-07
1.20905e-06
1.46011e-07
1.2016e-06
-5.92453e-08
1.20789e-06
-1.63837e-08
1.20596e-06
2.85078e-08
1.21046e-06
3.79262e-08
1.20954e-06
2.5134e-08
1.21039e-06
7.904e-08
1.21139e-06
3.35702e-08
1.20726e-06
8.44415e-08
1.21139e-06
2.49104e-08
1.19985e-06
9.12273e-08
1.20916e-06
1.54705e-08
1.18433e-06
1.15478e-07
2.52718e-08
1.18907e-06
1.27955e-06
1.58319e-07
1.27625e-06
-3.03327e-07
1.2769e-06
4.04603e-07
1.2636e-06
-4.71228e-07
1.27032e-06
4.68294e-07
1.25723e-06
-3.43154e-07
1.26049e-06
1.4275e-07
1.26088e-06
-5.96355e-08
1.26099e-06
-1.64896e-08
1.26676e-06
2.27381e-08
1.26464e-06
4.00417e-08
1.2714e-06
1.83752e-08
1.26559e-06
8.48472e-08
1.27349e-06
2.56712e-08
1.26461e-06
9.33213e-08
1.27208e-06
1.74462e-08
1.2614e-06
1.01901e-07
1.26591e-06
1.09617e-08
1.25414e-06
1.27243e-07
3.82916e-08
1.24112e-06
1.33786e-06
1.64559e-07
1.33657e-06
-3.02031e-07
1.33513e-06
4.0604e-07
1.32455e-06
-4.60651e-07
1.32829e-06
4.64558e-07
1.32148e-06
-3.36343e-07
1.31871e-06
1.45522e-07
1.32544e-06
-6.63723e-08
1.32077e-06
-1.18156e-08
1.32996e-06
1.3544e-08
1.32556e-06
4.44436e-08
1.3336e-06
1.03339e-08
1.32838e-06
9.00702e-08
1.33503e-06
1.90218e-08
1.32995e-06
9.8398e-08
1.33333e-06
1.4065e-08
1.32912e-06
1.06117e-07
1.32749e-06
1.2593e-08
1.32316e-06
1.31574e-07
5.5169e-08
1.30628e-06
1.40013e-06
1.72781e-07
1.40039e-06
-3.02289e-07
1.39829e-06
4.08144e-07
1.39056e-06
-4.52926e-07
1.39309e-06
4.62027e-07
1.39105e-06
-3.343e-07
1.38534e-06
1.51228e-07
1.39419e-06
-7.52168e-08
1.38851e-06
-6.13974e-09
1.3966e-06
5.45553e-09
1.3937e-06
4.73403e-08
1.39935e-06
4.69243e-09
1.39729e-06
9.21291e-08
1.40109e-06
1.52141e-08
1.39956e-06
9.99363e-08
1.40037e-06
1.32537e-08
1.39893e-06
1.07552e-07
1.3952e-06
1.63251e-08
1.39291e-06
1.33865e-07
7.196e-08
1.37612e-06
1.46721e-06
1.8125e-07
1.46794e-06
-3.03025e-07
1.4666e-06
4.09491e-07
1.46105e-06
-4.47381e-07
1.46414e-06
4.58936e-07
1.46426e-06
-3.34422e-07
1.45899e-06
1.56505e-07
1.46643e-06
-8.26555e-08
1.46213e-06
-1.8476e-09
1.46757e-06
1.68823e-11
1.46664e-06
4.82688e-08
1.46995e-06
1.38645e-09
1.46991e-06
9.21738e-08
1.47211e-06
1.30066e-08
1.47206e-06
9.99925e-08
1.47186e-06
1.34509e-08
1.47151e-06
1.07902e-07
1.46654e-06
2.12989e-08
1.46573e-06
1.34675e-07
8.87266e-08
1.44896e-06
1.53923e-06
1.88238e-07
1.53941e-06
-3.03204e-07
1.53962e-06
4.09281e-07
1.53533e-06
-4.4309e-07
1.53981e-06
4.54448e-07
1.54006e-06
-3.34666e-07
1.53686e-06
1.59704e-07
1.54158e-06
-8.73788e-08
1.53888e-06
8.53258e-10
1.54217e-06
-3.27507e-09
1.54218e-06
4.82663e-08
1.54416e-06
-5.99015e-10
1.54488e-06
9.14578e-08
1.54629e-06
1.15987e-08
1.54691e-06
9.93693e-08
1.54597e-06
1.43894e-08
1.54656e-06
1.07311e-07
1.5403e-06
2.75638e-08
1.54088e-06
1.34089e-07
1.05133e-07
1.52448e-06
1.6156e-06
1.92769e-07
1.61474e-06
-3.02346e-07
1.61655e-06
4.07476e-07
1.61275e-06
-4.39295e-07
1.61859e-06
4.48612e-07
1.61799e-06
-3.34071e-07
1.61692e-06
1.60774e-07
1.61917e-06
-8.96315e-08
1.61742e-06
2.60932e-09
1.61937e-06
-5.22521e-09
1.61955e-06
4.80828e-08
1.62077e-06
-1.82237e-09
1.62179e-06
9.04462e-08
1.62257e-06
1.08184e-08
1.62376e-06
9.81725e-08
1.622e-06
1.61477e-08
1.62358e-06
1.05737e-07
1.6161e-06
3.50419e-08
1.61776e-06
1.32427e-07
1.20606e-07
1.60229e-06
1.69551e-06
1.94833e-07
1.69372e-06
-3.00555e-07
1.69672e-06
4.04471e-07
1.69294e-06
-4.35507e-07
1.69975e-06
4.41799e-07
1.69809e-06
-3.32408e-07
1.69861e-06
1.60253e-07
1.69911e-06
-9.01319e-08
1.69784e-06
3.88194e-09
1.69891e-06
-6.29779e-09
1.6991e-06
4.78916e-08
1.69971e-06
-2.42955e-09
1.70097e-06
8.91877e-08
1.70108e-06
1.07001e-08
1.7029e-06
9.63566e-08
1.70024e-06
1.88063e-08
1.70275e-06
1.03228e-07
1.69426e-06
4.35311e-08
1.69657e-06
1.30115e-07
1.34632e-07
1.68255e-06
1.7785e-06
1.95054e-07
1.77615e-06
-2.98204e-07
1.77995e-06
4.00673e-07
1.77588e-06
-4.31437e-07
1.78339e-06
4.34287e-07
1.78069e-06
-3.2971e-07
1.78236e-06
1.58587e-07
1.78171e-06
-8.94837e-08
1.78084e-06
4.74749e-09
1.78125e-06
-6.70081e-09
1.78159e-06
4.75536e-08
1.78159e-06
-2.43115e-09
1.78319e-06
8.75884e-08
1.78258e-06
1.13109e-08
1.78506e-06
9.38679e-08
1.78147e-06
2.24026e-08
1.78476e-06
9.99355e-08
1.77555e-06
5.27415e-08
1.77801e-06
1.27657e-07
1.46805e-07
1.76584e-06
1.86463e-06
1.94172e-07
1.86205e-06
-2.95624e-07
1.8664e-06
3.9632e-07
1.86188e-06
-4.26919e-07
1.86999e-06
4.26183e-07
1.8663e-06
-3.26023e-07
1.86892e-06
1.55968e-07
1.86747e-06
-8.80329e-08
1.86715e-06
5.0612e-09
1.86699e-06
-6.53796e-09
1.86771e-06
4.68305e-08
1.86711e-06
-1.82551e-09
1.86919e-06
8.55062e-08
1.8678e-06
1.26996e-08
1.87099e-06
9.06825e-08
1.86649e-06
2.68982e-08
1.87031e-06
9.61181e-08
1.86075e-06
6.23041e-08
1.86282e-06
1.25585e-07
1.56844e-07
1.85278e-06
1.95428e-06
1.92728e-07
1.95164e-06
-2.92978e-07
1.95646e-06
3.91502e-07
1.95141e-06
-4.21871e-07
1.9601e-06
4.17488e-07
1.95543e-06
-3.21354e-07
1.95898e-06
1.52426e-07
1.95685e-06
-8.59083e-08
1.95728e-06
4.62894e-09
1.9566e-06
-5.85534e-09
1.95794e-06
4.54921e-08
1.95673e-06
-6.18099e-10
1.95944e-06
8.27994e-08
1.95727e-06
1.48714e-08
1.96112e-06
8.68318e-08
1.95586e-06
3.2152e-08
1.95986e-06
9.21217e-08
1.95037e-06
7.17993e-08
1.95159e-06
1.24357e-07
1.64639e-07
1.9438e-06
2.04791e-06
1.9101e-07
2.04522e-06
-2.90294e-07
2.0505e-06
3.86226e-07
2.04489e-06
-4.16259e-07
2.05422e-06
4.0816e-07
2.04855e-06
-3.15689e-07
2.05305e-06
1.47924e-07
2.05024e-06
-8.31009e-08
2.05158e-06
3.2944e-09
2.05036e-06
-4.64108e-09
2.05249e-06
4.33644e-08
2.05069e-06
1.18658e-09
2.05412e-06
7.93687e-08
2.05122e-06
1.77698e-08
2.05563e-06
8.24255e-08
2.04987e-06
3.79128e-08
2.05364e-06
8.83422e-08
2.04464e-06
8.08078e-08
2.04472e-06
1.24271e-07
1.70274e-07
2.03909e-06
2.14588e-06
1.89127e-07
2.14312e-06
-2.87528e-07
2.14887e-06
3.80472e-07
2.14268e-06
-4.10062e-07
2.1527e-06
3.98135e-07
2.14602e-06
-3.09011e-07
2.15153e-06
1.42417e-07
2.14796e-06
-7.9533e-08
2.1503e-06
9.57452e-10
2.14849e-06
-2.83414e-09
2.15151e-06
4.03456e-08
2.14912e-06
3.58241e-09
2.15329e-06
7.51914e-08
2.1498e-06
2.12628e-08
2.15456e-06
7.76636e-08
2.14863e-06
4.38464e-08
2.1518e-06
8.51717e-08
2.14363e-06
8.89759e-08
2.14247e-06
1.25427e-07
1.74008e-07
2.13874e-06
2.24851e-06
1.87104e-07
2.2456e-06
-2.84621e-07
2.25187e-06
3.74212e-07
2.24506e-06
-4.03255e-07
2.25585e-06
3.8734e-07
2.24815e-06
-3.01307e-07
2.25471e-06
1.35856e-07
2.25028e-06
-7.5106e-08
2.25368e-06
-2.4392e-09
2.2512e-06
-3.53065e-10
2.25514e-06
3.64037e-08
2.25218e-06
6.54043e-09
2.25703e-06
7.03413e-08
2.25316e-06
2.5134e-08
2.25799e-06
7.28294e-08
2.25225e-06
4.9587e-08
2.25448e-06
8.29416e-08
2.2474e-06
9.60633e-08
2.24508e-06
1.27742e-07
1.76223e-07
2.24287e-06
2.35604e-06
1.84937e-07
2.35294e-06
-2.81515e-07
2.35974e-06
3.67409e-07
2.35228e-06
-3.95798e-07
2.36392e-06
3.75697e-07
2.35518e-06
-2.9256e-07
2.36284e-06
1.2819e-07
2.35746e-06
-6.97263e-08
2.36195e-06
-6.92528e-09
2.35873e-06
2.86789e-09
2.36356e-06
3.15754e-08
2.36012e-06
9.97638e-09
2.36547e-06
6.4997e-08
2.36151e-06
2.90855e-08
2.36608e-06
6.82607e-08
2.36087e-06
5.48033e-08
2.36195e-06
8.18583e-08
2.35602e-06
1.01997e-07
2.35278e-06
1.30978e-07
1.77353e-07
2.35165e-06
2.46872e-06
1.82613e-07
2.46536e-06
-2.78157e-07
2.47275e-06
3.60023e-07
2.46459e-06
-3.87641e-07
2.47716e-06
3.63122e-07
2.46735e-06
-2.82742e-07
2.47618e-06
1.19359e-07
2.46977e-06
-6.3319e-08
2.47535e-06
-1.25064e-08
2.47137e-06
6.846e-09
2.47698e-06
2.59698e-08
2.47323e-06
1.37212e-08
2.4788e-06
5.94348e-08
2.47512e-06
3.27626e-08
2.47908e-06
6.4296e-08
2.47463e-06
5.92608e-08
2.47453e-06
8.19545e-08
2.46964e-06
1.06892e-07
2.46583e-06
1.34782e-07
1.77825e-07
2.46536e-06
2.58679e-06
1.80119e-07
2.58313e-06
-2.745e-07
2.59115e-06
3.52008e-07
2.58223e-06
-3.78722e-07
2.59582e-06
3.49529e-07
2.5849e-06
-2.71817e-07
2.59495e-06
1.09304e-07
2.58747e-06
-5.58387e-08
2.59412e-06
-1.91545e-08
2.58944e-06
1.15241e-08
2.59563e-06
1.97798e-08
2.59185e-06
1.75031e-08
2.59727e-06
5.40112e-08
2.59424e-06
3.57959e-08
2.59733e-06
6.1208e-08
2.59371e-06
6.28743e-08
2.59259e-06
8.30796e-08
2.58847e-06
1.11006e-07
2.58449e-06
1.3877e-07
1.78013e-07
2.5843e-06
2.71051e-06
1.77442e-07
2.7065e-06
-2.70495e-07
2.71521e-06
3.43299e-07
2.70546e-06
-3.68973e-07
2.72016e-06
3.34828e-07
2.70808e-06
-2.59736e-07
2.71941e-06
9.79785e-08
2.71085e-06
-4.72811e-08
2.71848e-06
-2.6789e-08
2.71326e-06
1.67506e-08
2.71975e-06
1.32889e-08
2.71629e-06
2.09583e-08
2.72119e-06
4.91133e-08
2.71911e-06
3.78718e-08
2.72119e-06
5.91333e-08
2.71833e-06
6.57339e-08
2.71645e-06
8.49598e-08
2.71283e-06
1.14626e-07
2.70898e-06
1.42622e-07
1.78186e-07
2.70881e-06
2.84014e-06
1.74566e-07
2.83573e-06
-2.66081e-07
2.84521e-06
3.33819e-07
2.83455e-06
-3.58317e-07
2.85045e-06
3.18932e-07
2.83717e-06
-2.46458e-07
2.84979e-06
8.53598e-08
2.84021e-06
-3.76967e-08
2.84868e-06
-3.52616e-08
2.84316e-06
2.22714e-08
2.84958e-06
6.87015e-09
2.84688e-06
2.36568e-08
2.85088e-06
4.51082e-08
2.84996e-06
3.87939e-08
2.85107e-06
5.80221e-08
2.84872e-06
6.80892e-08
2.84639e-06
8.72927e-08
2.84305e-06
1.17961e-07
2.83953e-06
1.46138e-07
1.78503e-07
2.83922e-06
2.97599e-06
1.71475e-07
2.97109e-06
-2.61188e-07
2.98144e-06
3.23472e-07
2.9698e-06
-3.46673e-07
2.98697e-06
3.01758e-07
2.97247e-06
-2.31959e-07
2.98636e-06
7.14704e-08
2.97587e-06
-2.72078e-08
2.98495e-06
-4.43351e-08
2.97949e-06
2.77241e-08
2.98539e-06
9.74641e-10
2.9839e-06
2.51425e-08
2.98672e-06
4.22927e-08
2.98699e-06
3.85188e-08
2.98738e-06
5.76371e-08
2.98521e-06
7.02601e-08
2.98263e-06
8.98681e-08
2.97947e-06
1.21122e-07
2.9764e-06
1.49204e-07
1.79068e-07
2.97584e-06
3.11833e-06
1.68151e-07
3.11287e-06
-2.5573e-07
3.1242e-06
3.12143e-07
3.11149e-06
-3.33958e-07
3.13001e-06
2.83239e-07
3.11429e-06
-2.16248e-07
3.12937e-06
5.6397e-08
3.11819e-06
-1.60266e-08
3.12753e-06
-5.36733e-08
3.12261e-06
3.2644e-08
3.12747e-06
-3.89088e-09
3.12763e-06
2.49846e-08
3.12907e-06
4.08539e-08
3.13044e-06
3.71412e-08
3.13044e-06
5.76422e-08
3.12825e-06
7.24543e-08
3.12546e-06
9.26495e-08
3.12234e-06
1.24249e-07
3.11988e-06
1.51664e-07
1.80018e-07
3.11893e-06
3.26748e-06
1.64576e-07
3.26136e-06
-2.49607e-07
3.2738e-06
2.99705e-07
3.25995e-06
-3.20105e-07
3.27984e-06
2.63345e-07
3.26299e-06
-1.994e-07
3.27907e-06
4.03154e-08
3.26753e-06
-4.47877e-09
3.27668e-06
-6.2826e-08
3.27283e-06
3.64934e-08
3.27617e-06
-7.23426e-09
3.27829e-06
2.28677e-08
3.27833e-06
4.08125e-08
3.2806e-06
3.48688e-08
3.28056e-06
5.76884e-08
3.27843e-06
7.45765e-08
3.27534e-06
9.57488e-08
3.27184e-06
1.27748e-07
3.27001e-06
1.53496e-07
1.81319e-07
3.2687e-06
3.42378e-06
1.60732e-07
3.41688e-06
-2.42713e-07
3.43055e-06
2.86037e-07
3.41552e-06
-3.05079e-07
3.43676e-06
2.42105e-07
3.41894e-06
-1.81576e-07
3.43575e-06
2.35097e-08
3.42427e-06
6.99635e-09
3.43271e-06
-7.12627e-08
3.43046e-06
3.87436e-08
3.43194e-06
-8.71938e-09
3.43601e-06
1.87955e-08
3.43502e-06
4.18106e-08
3.43769e-06
3.21906e-08
3.43813e-06
5.72554e-08
3.4366e-06
7.61063e-08
3.43343e-06
9.89159e-08
3.42883e-06
1.32345e-07
3.42564e-06
1.56686e-07
1.81154e-07
3.42581e-06
3.58754e-06
1.56602e-07
3.57977e-06
-2.34937e-07
3.59478e-06
2.71021e-07
3.57858e-06
-2.88881e-07
3.60109e-06
2.19602e-07
3.58252e-06
-1.63006e-07
3.59971e-06
6.31803e-09
3.58874e-06
1.79621e-08
3.59606e-06
-7.85761e-08
3.59561e-06
3.91899e-08
3.59546e-06
-8.57062e-09
3.60072e-06
1.35327e-08
3.59989e-06
4.26431e-08
3.6018e-06
3.02833e-08
3.60393e-06
5.51261e-08
3.60362e-06
7.64104e-08
3.60481e-06
9.77308e-08
3.60307e-06
1.3408e-07
3.58839e-06
1.71369e-07
1.76365e-07
3.59318e-06
3.75914e-06
1.52172e-07
3.75038e-06
-2.2618e-07
3.76682e-06
2.54584e-07
3.74953e-06
-2.71593e-07
3.7731e-06
1.96029e-07
3.75414e-06
-1.4405e-07
3.77126e-06
-1.08002e-08
3.76133e-06
2.78956e-08
3.7671e-06
-8.43489e-08
3.76853e-06
3.77597e-08
3.7672e-06
-7.2398e-09
3.77271e-06
8.02592e-09
3.77326e-06
4.20926e-08
3.77357e-06
2.99767e-08
3.77844e-06
5.02516e-08
3.77856e-06
7.62947e-08
3.78048e-06
9.58067e-08
3.7884e-06
1.26163e-07
3.80311e-06
1.56658e-07
2.03502e-07
3.77597e-06
3.93892e-06
1.4744e-07
3.92913e-06
-2.16393e-07
3.94696e-06
2.36754e-07
3.92881e-06
-2.53443e-07
3.95308e-06
1.71758e-07
3.93433e-06
-1.25299e-07
3.95066e-06
-2.71238e-08
3.94256e-06
3.59897e-08
3.94605e-06
-8.78393e-08
3.94989e-06
3.39241e-08
3.94702e-06
-4.3736e-09
3.95308e-06
1.96356e-09
3.95448e-06
4.06942e-08
3.95426e-06
3.02038e-08
3.95621e-06
4.82981e-08
3.94887e-06
8.36333e-08
3.94419e-06
1.0049e-07
3.94065e-06
1.29697e-07
3.93165e-06
1.65656e-07
1.93305e-07
3.94185e-06
4.12728e-06
1.42408e-07
4.11646e-06
-2.05571e-07
4.13556e-06
2.17654e-07
4.11687e-06
-2.34756e-07
4.14139e-06
1.4724e-07
4.12348e-06
-1.07385e-07
4.13837e-06
-4.2017e-08
4.13267e-06
4.1692e-08
4.13351e-06
-8.86773e-08
4.13981e-06
2.76164e-08
4.13539e-06
5.40917e-11
4.14198e-06
-4.6265e-09
4.14206e-06
4.061e-08
4.13722e-06
3.50418e-08
4.13364e-06
5.18773e-08
4.13069e-06
8.65871e-08
4.1254e-06
1.05779e-07
4.12212e-06
1.32973e-07
4.12021e-06
1.67566e-07
1.89106e-07
4.12441e-06
4.32462e-06
1.37095e-07
4.31282e-06
-1.93773e-07
4.33294e-06
1.97528e-07
4.31416e-06
-2.15974e-07
4.33843e-06
1.22973e-07
4.32194e-06
-9.08933e-08
4.33499e-06
-5.50666e-08
4.33179e-06
4.48864e-08
4.33023e-06
-8.71136e-08
4.33817e-06
1.96743e-08
4.33266e-06
5.56717e-09
4.33637e-06
-8.33967e-09
4.33341e-06
4.35682e-08
4.32716e-06
4.12976e-08
4.32497e-06
5.40634e-08
4.32269e-06
8.88652e-08
4.31777e-06
1.10698e-07
4.31558e-06
1.35166e-07
4.31668e-06
1.66466e-07
1.86732e-07
4.31905e-06
4.53133e-06
1.31534e-07
4.51871e-06
-1.81153e-07
4.53944e-06
1.76803e-07
4.52117e-06
-1.97704e-07
4.5446e-06
9.95433e-08
4.53013e-06
-7.64273e-08
4.54103e-06
-6.59681e-08
4.54023e-06
4.56858e-08
4.53662e-06
-8.3502e-08
4.54462e-06
1.1681e-08
4.53714e-06
1.30432e-08
4.53659e-06
-7.79333e-09
4.53527e-06
4.48908e-08
4.52847e-06
4.80993e-08
4.5263e-06
5.623e-08
4.52459e-06
9.05756e-08
4.52043e-06
1.14865e-07
4.51891e-06
1.36685e-07
4.52162e-06
1.63755e-07
1.84792e-07
4.52356e-06
4.74788e-06
1.25773e-07
4.73467e-06
-1.67947e-07
4.75543e-06
1.5604e-07
4.73832e-06
-1.80595e-07
4.76043e-06
7.74336e-08
4.74834e-06
-6.43295e-08
4.75715e-06
-7.47779e-08
4.75819e-06
4.46439e-08
4.75256e-06
-7.78703e-08
4.75849e-06
5.74323e-09
4.74975e-06
2.17875e-08
4.74706e-06
-5.10799e-09
4.74719e-06
4.47654e-08
4.74055e-06
5.47426e-08
4.73773e-06
5.90421e-08
4.73661e-06
9.17043e-08
4.73335e-06
1.18121e-07
4.73229e-06
1.37743e-07
4.73541e-06
1.60632e-07
1.82269e-07
4.73794e-06
4.9747e-06
1.19872e-07
4.96121e-06
-1.54463e-07
4.98137e-06
1.35888e-07
4.96603e-06
-1.65253e-07
4.98654e-06
5.69203e-08
4.9768e-06
-5.45941e-08
4.98384e-06
-8.1818e-08
4.98561e-06
4.2877e-08
4.97704e-06
-6.93043e-08
4.98083e-06
1.96047e-09
4.97278e-06
2.98389e-08
4.96829e-06
-6.27292e-10
4.9694e-06
4.36631e-08
4.96339e-06
6.07479e-08
4.95978e-06
6.26535e-08
4.95907e-06
9.24157e-08
4.95682e-06
1.20374e-07
4.95627e-06
1.38291e-07
4.95883e-06
1.58065e-07
1.78734e-07
4.96237e-06
5.21229e-06
1.13899e-07
5.1989e-06
-1.41069e-07
5.21777e-06
1.17016e-07
5.20461e-06
-1.52094e-07
5.22355e-06
3.79807e-08
5.21583e-06
-4.68753e-08
5.22126e-06
-8.72443e-08
5.22233e-06
4.18042e-08
5.21054e-06
-5.75133e-08
5.21355e-06
-1.05252e-09
5.20674e-06
3.66486e-08
5.20089e-06
5.22134e-09
5.20227e-06
4.22811e-08
5.19728e-06
6.57428e-08
5.19297e-06
6.69597e-08
5.19243e-06
9.29599e-08
5.19131e-06
1.21491e-07
5.19109e-06
1.38518e-07
5.19318e-06
1.55967e-07
1.74576e-07
5.19734e-06
5.46117e-06
1.07921e-07
5.44826e-06
-1.28164e-07
5.46528e-06
9.99981e-08
5.45434e-06
-1.41157e-07
5.472e-06
2.03245e-08
5.46557e-06
-4.04443e-08
5.46884e-06
-9.05176e-08
5.46859e-06
4.20537e-08
5.455e-06
-4.39234e-08
5.45735e-06
-3.40218e-09
5.45216e-06
4.18423e-08
5.44532e-06
1.20611e-08
5.44636e-06
4.12361e-08
5.44258e-06
6.9528e-08
5.43784e-06
7.16993e-08
5.43723e-06
9.35658e-08
5.43726e-06
1.21463e-07
5.43722e-06
1.38555e-07
5.43917e-06
1.54019e-07
1.7017e-07
5.44358e-06
5.72189e-06
1.01992e-07
5.70986e-06
-1.16135e-07
5.72471e-06
8.51474e-08
5.71543e-06
-1.3188e-07
5.73212e-06
3.63745e-09
5.72564e-06
-3.39623e-08
5.72549e-06
-9.03678e-08
5.72588e-06
4.16584e-08
5.71159e-06
-2.96304e-08
5.71299e-06
-4.79897e-09
5.70946e-06
4.53649e-08
5.70199e-06
1.95334e-08
5.70231e-06
4.09139e-08
5.69971e-06
7.21317e-08
5.6949e-06
7.65105e-08
5.69409e-06
9.43745e-08
5.69506e-06
1.20496e-07
5.69531e-06
1.38302e-07
5.69728e-06
1.52049e-07
1.65687e-07
5.70176e-06
5.99504e-06
9.61475e-08
5.98421e-06
-1.05311e-07
5.99688e-06
7.24839e-08
5.98816e-06
-1.23166e-07
6.00364e-06
-1.18348e-08
5.99628e-06
-2.66109e-08
5.9932e-06
-8.72833e-08
5.99514e-06
3.97227e-08
5.98111e-06
-1.5609e-08
5.9811e-06
-4.78231e-09
5.9791e-06
4.73656e-08
5.9714e-06
2.72288e-08
5.9708e-06
4.15205e-08
5.96919e-06
7.37401e-08
5.96466e-06
8.10384e-08
5.96364e-06
9.53975e-08
5.9652e-06
1.18932e-07
5.96595e-06
1.37553e-07
5.96804e-06
1.49959e-07
1.61203e-07
5.97252e-06
6.28124e-06
9.03946e-08
6.27182e-06
-9.58878e-08
6.28262e-06
6.16817e-08
6.27306e-06
-1.13608e-07
6.28656e-06
-2.53311e-08
6.27942e-06
-1.94732e-08
6.274e-06
-8.18624e-08
6.27715e-06
3.65683e-08
6.26409e-06
-2.54117e-09
6.26239e-06
-3.08801e-09
6.26157e-06
4.81878e-08
6.25407e-06
3.47314e-08
6.2525e-06
4.30899e-08
6.25161e-06
7.46315e-08
6.24763e-06
8.50123e-08
6.24649e-06
9.65406e-08
6.2483e-06
1.17121e-07
6.24971e-06
1.36144e-07
6.25201e-06
1.47653e-07
1.56754e-07
6.25646e-06
6.58114e-06
8.47209e-08
6.57315e-06
-8.78905e-08
6.58263e-06
5.21983e-08
6.57119e-06
-1.02169e-07
6.58233e-06
-3.64712e-08
6.57646e-06
-1.3607e-08
6.56892e-06
-7.43207e-08
6.57261e-06
3.28835e-08
6.56096e-06
9.10595e-09
6.55758e-06
2.92007e-10
6.55748e-06
4.82841e-08
6.55053e-06
4.16889e-08
6.54809e-06
4.55259e-08
6.54763e-06
7.50891e-08
6.54436e-06
8.82804e-08
6.54323e-06
9.76738e-08
6.54505e-06
1.15298e-07
6.54716e-06
1.3404e-07
6.54979e-06
1.45025e-07
1.5233e-07
6.55421e-06
6.89542e-06
7.90919e-08
6.88867e-06
-8.11427e-08
6.89754e-06
4.33262e-08
6.88401e-06
-8.86321e-08
6.89234e-06
-4.4807e-08
6.88797e-06
-9.23745e-09
6.87872e-06
-6.50655e-08
6.88221e-06
2.9394e-08
6.87222e-06
1.90962e-08
6.86737e-06
5.14076e-09
6.86754e-06
4.81168e-08
6.86135e-06
4.78717e-08
6.85823e-06
4.86504e-08
6.85798e-06
7.53413e-08
6.85547e-06
9.07846e-08
6.85447e-06
9.86769e-08
6.85619e-06
1.13575e-07
6.85892e-06
1.31308e-07
6.86197e-06
1.41976e-07
1.47885e-07
6.86642e-06
7.22477e-06
7.34599e-08
7.21894e-06
-7.53134e-08
7.22794e-06
3.43237e-08
7.21266e-06
-7.33472e-08
7.21757e-06
-4.97191e-08
7.21449e-06
-6.15579e-09
7.20401e-06
-5.45875e-08
7.20673e-06
2.66759e-08
7.19838e-06
2.74388e-08
7.19246e-06
1.10642e-08
7.19248e-06
4.80935e-08
7.18717e-06
5.3189e-08
7.18357e-06
5.22454e-08
7.18336e-06
7.55551e-08
7.18165e-06
9.2495e-08
7.18084e-06
9.94878e-08
7.18246e-06
1.11956e-07
7.18569e-06
1.28076e-07
7.18922e-06
1.38439e-07
1.43348e-07
7.19376e-06
7.56991e-06
6.7774e-08
7.5646e-06
-7.00022e-08
7.57426e-06
2.46595e-08
7.55795e-06
-5.70368e-08
7.55891e-06
-5.06727e-08
7.55666e-06
-3.90327e-09
7.54544e-06
-4.33696e-08
7.54697e-06
2.51484e-08
7.54011e-06
3.42922e-08
7.53354e-06
1.76347e-08
7.53314e-06
4.84958e-08
7.52865e-06
5.76793e-08
7.5248e-06
5.6094e-08
7.52452e-06
7.58333e-08
7.52362e-06
9.33965e-08
7.52303e-06
1.0008e-07
7.5246e-06
1.10388e-07
7.52818e-06
1.24492e-07
7.53222e-06
1.34398e-07
1.38639e-07
7.53693e-06
7.93159e-06
6.19953e-08
7.92627e-06
-6.46831e-08
7.93699e-06
1.39364e-08
7.92056e-06
-4.06056e-08
7.91719e-06
-4.72983e-08
7.91516e-06
-1.87842e-09
7.90369e-06
-3.18963e-08
7.90376e-06
2.50745e-08
7.89813e-06
3.9931e-08
7.89129e-06
2.447e-08
7.89033e-06
4.94581e-08
7.88654e-06
6.14631e-08
7.88262e-06
6.0015e-08
7.88224e-06
7.62177e-08
7.88211e-06
9.35205e-08
7.8818e-06
1.00391e-07
7.88337e-06
1.08821e-07
7.88717e-06
1.2069e-07
7.89169e-06
1.29885e-07
1.33679e-07
7.89665e-06
8.31056e-06
5.61178e-08
8.3048e-06
-5.89221e-08
8.31655e-06
2.18264e-09
8.30089e-06
-2.49396e-08
8.29319e-06
-3.96036e-08
8.29078e-06
5.34182e-10
8.27948e-06
-2.05961e-08
8.27801e-06
2.65449e-08
8.27321e-06
4.47301e-08
8.26642e-06
3.12623e-08
8.26488e-06
5.09901e-08
8.26166e-06
6.4684e-08
8.2578e-06
6.38766e-08
8.2573e-06
7.67198e-08
8.25788e-06
9.29396e-08
8.25796e-06
1.00316e-07
8.25957e-06
1.07205e-07
8.26348e-06
1.16783e-07
8.26839e-06
1.24973e-07
1.28412e-07
8.27366e-06
8.7076e-06
5.01809e-08
8.70141e-06
-5.27306e-08
8.71289e-06
-9.30268e-09
8.69913e-06
-1.11795e-08
8.68766e-06
-2.81279e-08
8.68432e-06
3.86855e-09
8.67355e-06
-9.8206e-09
8.67059e-06
2.95021e-08
8.66624e-06
4.90808e-08
8.65967e-06
3.78311e-08
8.65765e-06
5.30116e-08
8.65487e-06
6.74663e-08
8.65116e-06
6.75837e-08
8.65053e-06
7.73461e-08
8.65171e-06
9.17613e-08
8.65227e-06
9.97525e-08
8.65402e-06
1.05461e-07
8.65795e-06
1.12853e-07
8.66316e-06
1.19765e-07
1.22816e-07
8.66875e-06
9.12354e-06
4.42647e-08
9.11682e-06
-4.60131e-08
9.12707e-06
-1.95567e-08
9.11528e-06
6.1201e-10
9.10128e-06
-1.41269e-08
9.0967e-06
8.45022e-09
9.08665e-06
2.31657e-10
9.08244e-06
3.37058e-08
9.07814e-06
5.33804e-08
9.07186e-06
4.4113e-08
9.06947e-06
5.54042e-08
9.06703e-06
6.98991e-08
9.06356e-06
7.10537e-08
9.06283e-06
7.80847e-08
9.06443e-06
9.01606e-08
9.06558e-06
9.85987e-08
9.06756e-06
1.03484e-07
9.07148e-06
1.08934e-07
9.07686e-06
1.14382e-07
1.16917e-07
9.08276e-06
9.55924e-06
3.84856e-08
9.55101e-06
-3.7789e-08
9.55894e-06
-2.74768e-08
9.54998e-06
9.56468e-09
9.5348e-06
1.05443e-09
9.52887e-06
1.43853e-08
9.5196e-06
9.49317e-09
9.51443e-06
3.88791e-08
9.50991e-06
5.79024e-08
9.50386e-06
5.01584e-08
9.50121e-06
5.8058e-08
9.49908e-06
7.20293e-08
9.49592e-06
7.42105e-08
9.49509e-06
7.89163e-08
9.49692e-06
8.83344e-08
9.49873e-06
9.67912e-08
9.50106e-06
1.01153e-07
9.50499e-06
1.05e-07
9.51045e-06
1.08926e-07
1.10778e-07
9.51658e-06
1.00156e-05
3.29852e-08
1.00054e-05
-2.75451e-08
1.00106e-05
-3.27232e-08
1.00044e-05
1.58464e-08
9.98912e-06
1.62895e-08
9.98185e-06
2.16592e-08
9.97328e-06
1.80577e-08
9.96746e-06
4.47054e-08
9.96254e-06
6.28159e-08
9.95663e-06
5.6069e-08
9.95378e-06
6.09118e-08
9.95193e-06
7.38747e-08
9.94916e-06
7.69814e-08
9.94826e-06
7.98219e-08
9.95015e-06
8.64433e-08
9.95259e-06
9.43444e-08
9.95539e-06
9.83578e-08
9.95942e-06
1.00973e-07
9.96489e-06
1.03456e-07
1.04483e-07
9.97118e-06
1.04937e-05
2.79017e-08
1.04822e-05
-1.6042e-08
1.04844e-05
-3.48785e-08
1.048e-05
2.02639e-08
1.04652e-05
3.10062e-08
1.04567e-05
3.02076e-08
1.04486e-05
2.61473e-08
1.04425e-05
5.08551e-08
1.04371e-05
6.82132e-08
1.04312e-05
6.19669e-08
1.04281e-05
6.39403e-08
1.04265e-05
7.54576e-08
1.04242e-05
7.9292e-08
1.04233e-05
8.07545e-08
1.04251e-05
8.46162e-08
1.04281e-05
9.13442e-08
1.04315e-05
9.50201e-08
1.04357e-05
9.67444e-08
1.04412e-05
9.79762e-08
9.81076e-08
1.04476e-05
1.09946e-05
2.33529e-08
1.09849e-05
-6.39801e-09
1.09815e-05
-3.14723e-08
1.09781e-05
2.37212e-08
1.09643e-05
4.47321e-08
1.09545e-05
4.00241e-08
1.09466e-05
3.40819e-08
1.09404e-05
5.70682e-08
1.09345e-05
7.4061e-08
1.09285e-05
6.80197e-08
1.09253e-05
6.71288e-08
1.09239e-05
7.68215e-08
1.09221e-05
8.10826e-08
1.09213e-05
8.16054e-08
1.09229e-05
8.2981e-08
1.09263e-05
8.79131e-08
1.09303e-05
9.11099e-08
1.09348e-05
9.22066e-08
1.09403e-05
9.24366e-08
9.16976e-08
1.09467e-05
1.15192e-05
1.94847e-08
1.15079e-05
4.91185e-09
1.15029e-05
-2.64302e-08
1.15001e-05
2.65101e-08
1.14876e-05
5.72519e-08
1.14765e-05
5.11396e-08
1.14683e-05
4.22005e-08
1.14622e-05
6.32298e-08
1.1456e-05
8.02046e-08
1.14497e-05
7.43945e-08
1.14463e-05
7.05101e-08
1.14451e-05
7.80026e-08
1.14438e-05
8.23302e-08
1.14432e-05
8.22077e-08
1.14446e-05
8.16464e-08
1.14483e-05
8.41866e-08
1.14528e-05
8.66577e-08
1.14577e-05
8.72667e-08
1.14634e-05
8.67572e-08
8.5252e-08
1.14698e-05
1.20689e-05
1.64017e-08
1.20573e-05
1.65533e-08
1.20493e-05
-1.84421e-08
1.2047e-05
2.87552e-08
1.2036e-05
6.8324e-08
1.20237e-05
6.33664e-08
1.20151e-05
5.08809e-08
1.20089e-05
6.93588e-08
1.20027e-05
8.64564e-08
1.19959e-05
8.11519e-08
1.19922e-05
7.42338e-08
1.19912e-05
7.90199e-08
1.19905e-05
8.30474e-08
1.19902e-05
8.24298e-08
1.19913e-05
8.05558e-08
1.19952e-05
8.03472e-08
1.20001e-05
8.1754e-08
1.20055e-05
8.18647e-08
1.20114e-05
8.08459e-08
7.87263e-08
1.20179e-05
1.26448e-05
1.4175e-08
1.26336e-05
2.77887e-08
1.26232e-05
-8.09944e-09
1.26203e-05
3.17332e-08
1.26105e-05
7.81003e-08
1.25975e-05
7.63192e-08
1.2588e-05
6.04607e-08
1.25817e-05
7.55742e-08
1.25755e-05
9.26787e-08
1.25685e-05
8.82134e-08
1.25642e-05
7.84965e-08
1.25632e-05
7.99638e-08
1.2563e-05
8.32533e-08
1.25632e-05
8.22744e-08
1.25644e-05
7.93727e-08
1.25681e-05
7.6653e-08
1.25733e-05
7.65073e-08
1.25792e-05
7.60185e-08
1.25854e-05
7.46044e-08
7.20378e-08
1.25921e-05
1.32483e-05
1.28238e-08
1.32392e-05
3.68629e-08
1.32258e-05
5.31368e-09
1.32212e-05
3.6316e-08
1.32123e-05
8.69754e-08
1.31991e-05
8.95971e-08
1.31884e-05
7.11719e-08
1.31819e-05
8.20586e-08
1.31757e-05
9.88415e-08
1.31685e-05
9.54206e-08
1.31636e-05
8.34124e-08
1.31625e-05
8.10565e-08
1.31627e-05
8.30149e-08
1.31633e-05
8.17285e-08
1.31649e-05
7.77848e-08
1.31683e-05
7.32482e-08
1.31738e-05
7.09555e-08
1.31799e-05
6.99204e-08
1.31866e-05
6.79092e-08
6.50736e-08
1.31936e-05
1.38806e-05
1.23549e-08
1.38727e-05
4.47977e-08
1.38577e-05
2.03469e-08
1.38512e-05
4.27349e-08
1.38429e-05
9.5326e-08
1.38295e-05
1.02967e-07
1.38176e-05
8.3101e-08
1.38106e-05
8.9064e-08
1.38045e-05
1.04973e-07
1.37972e-05
1.02646e-07
1.37917e-05
8.89489e-08
1.37902e-05
8.25676e-08
1.37907e-05
8.25018e-08
1.37917e-05
8.06973e-08
1.37937e-05
7.57677e-08
1.3797e-05
6.99789e-08
1.38029e-05
6.50904e-08
1.38089e-05
6.38621e-08
1.38162e-05
6.06396e-08
5.7712e-08
1.38236e-05
1.45433e-05
1.27323e-08
1.45352e-05
5.28721e-08
1.45201e-05
3.54606e-08
1.45117e-05
5.11334e-08
1.45036e-05
1.03439e-07
1.44902e-05
1.16373e-07
1.44771e-05
9.61543e-08
1.44693e-05
9.69375e-08
1.44631e-05
1.11107e-07
1.44559e-05
1.09857e-07
1.44499e-05
9.49904e-08
1.44477e-05
8.47194e-08
1.44483e-05
8.19391e-08
1.44498e-05
7.91851e-08
1.44521e-05
7.34248e-08
1.44557e-05
6.64152e-08
1.44614e-05
5.9342e-08
1.44679e-05
5.74132e-08
1.44754e-05
5.31338e-08
4.97579e-08
1.44834e-05
1.52377e-05
1.38876e-08
1.52306e-05
6.00008e-08
1.52147e-05
5.14022e-08
1.5204e-05
6.18199e-08
1.51958e-05
1.11597e-07
1.51824e-05
1.29775e-07
1.51684e-05
1.10203e-07
1.51593e-05
1.0599e-07
1.5153e-05
1.17395e-07
1.51458e-05
1.17031e-07
1.51394e-05
1.0146e-07
1.51365e-05
8.76095e-08
1.51368e-05
8.15976e-08
1.51387e-05
7.73383e-08
1.51414e-05
7.07125e-08
1.51454e-05
6.23612e-08
1.51507e-05
5.41118e-08
1.51582e-05
4.9867e-08
1.51655e-05
4.58047e-08
4.12406e-08
1.51741e-05
1.59654e-05
1.57959e-08
1.59585e-05
6.69154e-08
1.59422e-05
6.76917e-08
1.59297e-05
7.42897e-08
1.5921e-05
1.20332e-07
1.59077e-05
1.43101e-07
1.58927e-05
1.25188e-07
1.58823e-05
1.1638e-07
1.58756e-05
1.24147e-07
1.58684e-05
1.24163e-07
1.58615e-05
1.08341e-07
1.58579e-05
9.12525e-08
1.58577e-05
8.17651e-08
1.58597e-05
7.53336e-08
1.58628e-05
6.76148e-08
1.58672e-05
5.79898e-08
1.58725e-05
4.88304e-08
1.58803e-05
4.20866e-08
1.58887e-05
3.73378e-08
3.31677e-08
1.58968e-05
1.6728e-05
1.8408e-08
1.67198e-05
7.50691e-08
1.67046e-05
8.29267e-08
1.66906e-05
8.83193e-08
1.66808e-05
1.30109e-07
1.66675e-05
1.56378e-07
1.66517e-05
1.41037e-07
1.66398e-05
1.28207e-07
1.66323e-05
1.31705e-07
1.66251e-05
1.31361e-07
1.66178e-05
1.15613e-07
1.66134e-05
9.57122e-08
1.66125e-05
8.2661e-08
1.66144e-05
7.34046e-08
1.66178e-05
6.42286e-08
1.66223e-05
5.34505e-08
1.66282e-05
4.297e-08
1.66359e-05
3.43151e-08
1.66449e-05
2.83349e-08
2.4159e-08
1.6654e-05
1.75271e-05
2.16444e-08
1.75212e-05
8.10232e-08
1.7504e-05
1.00121e-07
1.7488e-05
1.04324e-07
1.74769e-05
1.41197e-07
1.74635e-05
1.69773e-07
1.74469e-05
1.57661e-07
1.74335e-05
1.41566e-07
1.74248e-05
1.40391e-07
1.74173e-05
1.38876e-07
1.74097e-05
1.23264e-07
1.74042e-05
1.01131e-07
1.74025e-05
8.44225e-08
1.7404e-05
7.19031e-08
1.74075e-05
6.07288e-08
1.74123e-05
4.85854e-08
1.74187e-05
3.66017e-08
1.74267e-05
2.62962e-08
1.74361e-05
1.89502e-08
1.39017e-08
1.74464e-05
1.83645e-05
2.54846e-08
1.83574e-05
8.8105e-08
1.83413e-05
1.16277e-07
1.83237e-05
1.21914e-07
1.8311e-05
1.53829e-07
1.82973e-05
1.8353e-07
1.82799e-05
1.75005e-07
1.8265e-05
1.56529e-07
1.82549e-05
1.50504e-07
1.82467e-05
1.47044e-07
1.82385e-05
1.3143e-07
1.8232e-05
1.0764e-07
1.82292e-05
8.7225e-08
1.82299e-05
7.12138e-08
1.82333e-05
5.73435e-08
1.82385e-05
4.33643e-08
1.82454e-05
2.97321e-08
1.8254e-05
1.7715e-08
1.8264e-05
8.87175e-09
2.73729e-09
1.82752e-05
1.9242e-05
2.98921e-08
1.92352e-05
9.49073e-08
1.92184e-05
1.33014e-07
1.91994e-05
1.40944e-07
1.91851e-05
1.68123e-07
1.91707e-05
1.97935e-07
1.91527e-05
1.93027e-07
1.9136e-05
1.73185e-07
1.91242e-05
1.62364e-07
1.9115e-05
1.5625e-07
1.9106e-05
1.40402e-07
1.90983e-05
1.1534e-07