/*--------------------------------*- C++ -*----------------------------------*\
| =========                 |                                                 |
| \\      /  F ield         | OpenFOAM: The Open Source CFD Toolbox           |
|  \\    /   O peration     | Version:  v2012                                 |
|   \\  /    A nd           | Website:  www.openfoam.com                      |
|    \\/     M anipulation  |                                                 |
\*---------------------------------------------------------------------------*/
FoamFile
{
    version     2.0;
    format      ascii;
    class       surfaceScalarField;
    location    "2.1";
    object      phi;
}
// * * * * * * * * * * * * * * * * * * * * * * * * * * * * * * * * * * * * * //

dimensions      [0 3 -1 0 0 0 0];
oriented        oriented;


internalField   nonuniform List<scalar> 
34900
(
1.17427e-06
3.70501e-07
1.15535e-06
-5.01433e-07
1.16765e-06
3.68493e-07
1.14921e-06
-1.45677e-07
1.15793e-06
-1.28545e-07
1.15261e-06
5.72202e-08
1.16187e-06
-4.54699e-08
1.15617e-06
2.54769e-08
1.16628e-06
5.96891e-08
1.15927e-06
6.67227e-08
1.16728e-06
8.6449e-08
1.15751e-06
5.44045e-08
1.16444e-06
8.36062e-08
1.15269e-06
3.96378e-08
1.15909e-06
7.51199e-08
1.14585e-06
2.79739e-08
1.15182e-06
7.19251e-08
1.13759e-06
2.20082e-08
1.13882e-06
8.67891e-08
2.61754e-08
1.10134e-06
1.22689e-06
3.67872e-07
1.20841e-06
-4.82958e-07
1.21804e-06
3.58872e-07
1.2027e-06
-1.30345e-07
1.21028e-06
-1.36118e-07
1.20858e-06
5.89188e-08
1.21602e-06
-5.29137e-08
1.21325e-06
2.82491e-08
1.22032e-06
5.26149e-08
1.21821e-06
6.88334e-08
1.22089e-06
8.3776e-08
1.21813e-06
5.71618e-08
1.21697e-06
8.47704e-08
1.21561e-06
4.09914e-08
1.20961e-06
8.11175e-08
1.21188e-06
2.57098e-08
1.19895e-06
8.48494e-08
1.20701e-06
1.39565e-08
1.18114e-06
1.12658e-07
2.24969e-08
1.18482e-06
1.28174e-06
3.68911e-07
1.26443e-06
-4.6564e-07
1.27e-06
3.53298e-07
1.26074e-06
-1.21082e-07
1.2639e-06
-1.39281e-07
1.26808e-06
5.47358e-08
1.271e-06
-5.58281e-08
1.27435e-06
2.48976e-08
1.27538e-06
5.15833e-08
1.28058e-06
6.36374e-08
1.27646e-06
8.78888e-08
1.28127e-06
5.23613e-08
1.27327e-06
9.27662e-08
1.27851e-06
3.57546e-08
1.2675e-06
9.2127e-08
1.27291e-06
2.02962e-08
1.26048e-06
9.72787e-08
1.26366e-06
1.07816e-08
1.25059e-06
1.25722e-07
3.65518e-08
1.23654e-06
1.33995e-06
3.73066e-07
1.32523e-06
-4.5092e-07
1.32611e-06
3.52413e-07
1.32458e-06
-1.19547e-07
1.32156e-06
-1.36259e-07
1.33054e-06
4.5754e-08
1.32908e-06
-5.43724e-08
1.33665e-06
1.73348e-08
1.33376e-06
5.44713e-08
1.3425e-06
5.48948e-08
1.33648e-06
9.39068e-08
1.34285e-06
4.59962e-08
1.33545e-06
1.00158e-07
1.33948e-06
3.17289e-08
1.33206e-06
9.9549e-08
1.33343e-06
1.89249e-08
1.3272e-06
1.03505e-07
1.32421e-06
1.37758e-08
1.31849e-06
1.31443e-07
5.45423e-08
1.3005e-06
1.40249e-06
3.78933e-07
1.391e-06
-4.39433e-07
1.3883e-06
3.55107e-07
1.39337e-06
-1.24613e-07
1.38527e-06
-1.28162e-07
1.39576e-06
3.52697e-08
1.39227e-06
-5.08852e-08
1.40028e-06
9.32366e-09
1.39711e-06
5.76484e-08
1.40523e-06
4.67734e-08
1.40137e-06
9.77671e-08
1.40595e-06
4.14081e-08
1.40197e-06
1.04142e-07
1.40352e-06
3.01816e-08
1.39965e-06
1.03421e-07
1.39865e-06
1.99188e-08
1.39518e-06
1.06974e-07
1.39014e-06
1.88201e-08
1.38645e-06
1.35134e-07
7.24359e-08
1.36855e-06
1.46994e-06
3.84672e-07
1.46131e-06
-4.30809e-07
1.45726e-06
3.59163e-07
1.46594e-06
-1.33292e-07
1.45561e-06
-1.1784e-07
1.4645e-06
2.63866e-08
1.46115e-06
-4.75405e-08
1.46719e-06
3.2901e-09
1.46554e-06
5.92902e-08
1.47159e-06
4.07299e-08
1.47038e-06
9.89703e-08
1.47335e-06
3.84471e-08
1.47177e-06
1.05713e-07
1.47226e-06
2.97009e-08
1.47005e-06
1.05623e-07
1.46836e-06
2.16097e-08
1.46607e-06
1.09267e-07
1.45992e-06
2.49703e-08
1.45774e-06
1.37311e-07
9.02728e-08
1.43991e-06
1.54223e-06
3.88659e-07
1.53554e-06
-4.24123e-07
1.53223e-06
3.62481e-07
1.54153e-06
-1.42595e-07
1.53152e-06
-1.0783e-07
1.53749e-06
2.04126e-08
1.5349e-06
-4.49493e-08
1.53862e-06
-4.27241e-10
1.53828e-06
5.96324e-08
1.54268e-06
3.63253e-08
1.54298e-06
9.86757e-08
1.54527e-06
3.61481e-08
1.54487e-06
1.06115e-07
1.54515e-06
2.94235e-08
1.54388e-06
1.06891e-07
1.54181e-06
2.3684e-08
1.5406e-06
1.1048e-07
1.53332e-06
3.22489e-08
1.5326e-06
1.38027e-07
1.07741e-07
1.51513e-06
1.6187e-06
3.90085e-07
1.61307e-06
-4.1849e-07
1.61161e-06
3.63946e-07
1.61972e-06
-1.50712e-07
1.61122e-06
-9.93312e-08
1.61466e-06
1.69806e-08
1.61239e-06
-4.26825e-08
1.6145e-06
-2.53791e-09
1.61462e-06
5.95079e-08
1.61811e-06
3.28349e-08
1.61894e-06
9.78502e-08
1.62106e-06
3.40323e-08
1.62129e-06
1.05884e-07
1.62152e-06
2.91922e-08
1.62109e-06
1.07313e-07
1.61855e-06
2.62267e-08
1.6185e-06
1.10527e-07
1.61017e-06
4.05882e-08
1.61064e-06
1.37548e-07
1.24271e-07
1.59411e-06
1.69859e-06
3.89065e-07
1.69346e-06
-4.1336e-07
1.69398e-06
3.63433e-07
1.7003e-06
-1.5704e-07
1.69344e-06
-9.24701e-08
1.69538e-06
1.50462e-08
1.69299e-06
-4.02987e-08
1.69426e-06
-3.8015e-09
1.69435e-06
5.94163e-08
1.69733e-06
2.98577e-08
1.69827e-06
9.69106e-08
1.70025e-06
3.20486e-08
1.70097e-06
1.05167e-07
1.70105e-06
2.91125e-08
1.70152e-06
1.0684e-07
1.69839e-06
2.9355e-08
1.69952e-06
1.094e-07
1.6903e-06
4.98036e-08
1.69161e-06
1.36238e-07
1.39318e-07
1.67657e-06
1.78152e-06
3.86272e-07
1.77663e-06
-4.08476e-07
1.77876e-06
3.61302e-07
1.78335e-06
-1.61624e-07
1.77785e-06
-8.69767e-08
1.77921e-06
1.36869e-08
1.77666e-06
-3.77515e-08
1.77758e-06
-4.71431e-09
1.77755e-06
5.9439e-08
1.78017e-06
2.72441e-08
1.78113e-06
9.59449e-08
1.78288e-06
3.03046e-08
1.78406e-06
1.0398e-07
1.78381e-06
2.93625e-08
1.78523e-06
1.0543e-07
1.78141e-06
3.31653e-08
1.78362e-06
1.07199e-07
1.7738e-06
5.96209e-08
1.77548e-06
1.34554e-07
1.52414e-07
1.76239e-06
1.86759e-06
3.82434e-07
1.86282e-06
-4.03712e-07
1.86618e-06
3.57945e-07
1.86923e-06
-1.64677e-07
1.86484e-06
-8.25805e-08
1.86615e-06
1.23771e-08
1.86364e-06
-3.5249e-08
1.86448e-06
-5.55288e-09
1.86448e-06
5.94406e-08
1.86679e-06
2.49395e-08
1.86783e-06
9.48964e-08
1.8692e-06
2.89334e-08
1.87089e-06
1.02293e-07
1.87013e-06
3.01242e-08
1.87247e-06
1.03085e-07
1.86794e-06
3.77008e-08
1.87098e-06
1.04162e-07
1.86091e-06
6.96885e-08
1.86245e-06
1.33016e-07
1.6322e-07
1.85164e-06
1.95722e-06
3.78052e-07
1.95248e-06
-3.98969e-07
1.95681e-06
3.53613e-07
1.95853e-06
-1.66392e-07
1.95504e-06
-7.90948e-08
1.95648e-06
1.09405e-08
1.95425e-06
-3.30212e-08
1.95514e-06
-6.4417e-09
1.95534e-06
5.92353e-08
1.95736e-06
2.29209e-08
1.95861e-06
9.36459e-08
1.9595e-06
2.80485e-08
1.96174e-06
1.00052e-07
1.96033e-06
3.15369e-08
1.96354e-06
9.98694e-08
1.95833e-06
4.29128e-08
1.96185e-06
1.00646e-07
1.95193e-06
7.96084e-08
1.95283e-06
1.32109e-07
1.71595e-07
1.94446e-06
2.05088e-06
3.73357e-07
2.04606e-06
-3.94141e-07
2.05123e-06
3.48435e-07
2.05178e-06
-1.66937e-07
2.04907e-06
-7.63898e-08
2.0506e-06
9.41709e-09
2.04879e-06
-3.12161e-08
2.04973e-06
-7.38353e-09
2.0503e-06
5.86667e-08
2.05203e-06
2.11932e-08
2.05363e-06
9.20505e-08
2.05394e-06
2.77309e-08
2.0568e-06
9.71939e-08
2.05467e-06
3.36637e-08
2.05863e-06
9.59118e-08
2.0529e-06
4.86407e-08
2.05647e-06
9.70791e-08
2.0471e-06
8.89826e-08
2.04702e-06
1.32188e-07
1.77616e-07
2.041e-06
2.14895e-06
3.68409e-07
2.14393e-06
-3.89117e-07
2.14989e-06
3.42473e-07
2.14942e-06
-1.66465e-07
2.1474e-06
-7.43751e-08
2.14887e-06
7.94836e-09
2.14756e-06
-2.99094e-08
2.14847e-06
-8.28917e-09
2.14951e-06
5.7626e-08
2.15091e-06
1.97948e-08
2.15299e-06
8.99712e-08
2.15269e-06
2.80266e-08
2.15621e-06
9.3672e-08
2.1534e-06
3.64727e-08
2.15791e-06
9.14069e-08
2.15193e-06
5.4624e-08
2.1551e-06
9.39031e-08
2.14662e-06
9.74644e-08
2.14538e-06
1.3343e-07
1.81561e-07
2.14143e-06
2.25171e-06
3.63191e-07
2.24638e-06
-3.8379e-07
2.25309e-06
3.35758e-07
2.25174e-06
-1.65115e-07
2.25037e-06
-7.3005e-08
2.25162e-06
6.70361e-09
2.25086e-06
-2.91524e-08
2.25159e-06
-9.01837e-09
2.25318e-06
5.60379e-08
2.25418e-06
1.87905e-08
2.25686e-06
8.7295e-08
2.25594e-06
2.89445e-08
2.26012e-06
8.94897e-08
2.25676e-06
3.98312e-08
2.26156e-06
8.66111e-08
2.25564e-06
6.05453e-08
2.25803e-06
9.15079e-08
2.2507e-06
1.04802e-07
2.24831e-06
1.35822e-07
1.83849e-07
2.24602e-06
2.3594e-06
3.57669e-07
2.35367e-06
-3.78058e-07
2.36113e-06
3.28296e-07
2.35899e-06
-1.62976e-07
2.35827e-06
-7.22858e-08
2.35913e-06
5.84449e-09
2.35898e-06
-2.90043e-08
2.35938e-06
-9.42084e-09
2.36158e-06
5.38442e-08
2.36212e-06
1.82494e-08
2.36546e-06
8.39542e-08
2.36396e-06
3.04445e-08
2.36872e-06
8.47264e-08
2.36504e-06
4.35137e-08
2.36982e-06
8.1826e-08
2.36428e-06
6.609e-08
2.36561e-06
9.01735e-08
2.35953e-06
1.10884e-07
2.35617e-06
1.39179e-07
1.84973e-07
2.35505e-06
2.47226e-06
3.51808e-07
2.46603e-06
-3.71829e-07
2.47426e-06
3.20064e-07
2.47136e-06
-1.60082e-07
2.47135e-06
-7.22721e-08
2.47168e-06
5.51442e-09
2.47222e-06
-2.95413e-08
2.47216e-06
-9.3626e-09
2.475e-06
5.09993e-08
2.47504e-06
1.82179e-08
2.47905e-06
7.9942e-08
2.47707e-06
3.24213e-08
2.48225e-06
7.95475e-08
2.47854e-06
4.72275e-08
2.483e-06
7.73649e-08
2.47809e-06
7.10003e-08
2.47823e-06
9.00309e-08
2.47334e-06
1.15776e-07
2.46935e-06
1.43167e-07
1.85435e-07
2.46889e-06
2.59052e-06
3.45581e-07
2.58371e-06
-3.65014e-07
2.59276e-06
3.11007e-07
2.58909e-06
-1.5641e-07
2.58987e-06
-7.30538e-08
2.58955e-06
5.83872e-09
2.59085e-06
-3.0847e-08
2.59023e-06
-8.74204e-09
2.59375e-06
4.74801e-08
2.59328e-06
1.86936e-08
2.59789e-06
7.53259e-08
2.59562e-06
3.46936e-08
2.60097e-06
7.41937e-08
2.59755e-06
5.06513e-08
2.6014e-06
7.35111e-08
2.5973e-06
7.51075e-08
2.59628e-06
9.10495e-08
2.59236e-06
1.19697e-07
2.58815e-06
1.47371e-07
1.85693e-07
2.5879e-06
2.71445e-06
3.3896e-07
2.70696e-06
-3.57525e-07
2.71692e-06
3.01044e-07
2.71241e-06
-1.51897e-07
2.7141e-06
-7.47405e-08
2.71301e-06
6.92469e-09
2.71516e-06
-3.29965e-08
2.71392e-06
-7.50197e-09
2.7181e-06
4.33051e-08
2.71719e-06
1.96034e-08
2.72226e-06
7.02566e-08
2.71994e-06
3.7006e-08
2.72519e-06
6.89482e-08
2.72235e-06
5.3488e-08
2.7254e-06
7.04644e-08
2.72214e-06
7.83656e-08
2.72013e-06
9.30614e-08
2.71688e-06
1.22951e-07
2.71285e-06
1.51397e-07
1.86085e-07
2.71246e-06
2.84431e-06
3.3192e-07
2.83605e-06
-3.4927e-07
2.84703e-06
2.90069e-07
2.84159e-06
-1.46462e-07
2.8443e-06
-7.74462e-08
2.84237e-06
8.85671e-09
2.84541e-06
-3.60375e-08
2.84355e-06
-5.64315e-09
2.8483e-06
3.85571e-08
2.84711e-06
2.07889e-08
2.8524e-06
6.49649e-08
2.85036e-06
3.90509e-08
2.85521e-06
6.40952e-08
2.85319e-06
5.5513e-08
2.85535e-06
6.83019e-08
2.85287e-06
8.08487e-08
2.8501e-06
9.58296e-08
2.84722e-06
1.25825e-07
2.84366e-06
1.54961e-07
1.86792e-07
2.84295e-06
2.98038e-06
3.24435e-07
2.97126e-06
-3.40151e-07
2.98336e-06
2.77966e-07
2.97692e-06
-1.40014e-07
2.98074e-06
-8.12728e-08
2.97792e-06
1.16843e-08
2.98185e-06
-3.997e-08
2.97945e-06
-3.24104e-09
2.9846e-06
3.3403e-08
2.98339e-06
2.19998e-08
2.98861e-06
5.97483e-08
2.98716e-06
4.04995e-08
2.99137e-06
5.98783e-08
2.99027e-06
5.66138e-08
2.99162e-06
6.69601e-08
2.98976e-06
8.27043e-08
2.98648e-06
9.91085e-08
2.98375e-06
1.28554e-07
2.98078e-06
1.57933e-07
1.87836e-07
2.97973e-06
3.12296e-06
3.16482e-07
3.11287e-06
-3.30066e-07
3.12623e-06
2.6461e-07
3.11869e-06
-1.32472e-07
3.12371e-06
-8.62947e-08
3.11999e-06
1.54058e-08
3.12474e-06
-4.47231e-08
3.12197e-06
-4.65836e-10
3.12726e-06
2.8108e-08
3.12636e-06
2.29044e-08
3.13118e-06
5.49294e-08
3.1306e-06
4.10721e-08
3.13405e-06
5.64316e-08
3.13385e-06
5.68133e-08
3.13455e-06
6.6261e-08
3.13318e-06
8.40749e-08
3.12963e-06
1.02658e-07
3.12684e-06
1.31341e-07
3.12437e-06
1.60409e-07
1.89062e-07
3.12314e-06
3.27235e-06
3.08037e-07
3.2612e-06
-3.18914e-07
3.27593e-06
2.49884e-07
3.26724e-06
-1.23782e-07
3.27348e-06
-9.25386e-08
3.26894e-06
1.99458e-08
3.27435e-06
-5.01344e-08
3.27148e-06
2.40715e-09
3.27656e-06
2.30308e-08
3.27634e-06
2.31236e-08
3.28047e-06
5.07951e-08
3.28091e-06
4.06344e-08
3.28366e-06
5.36846e-08
3.28417e-06
5.62989e-08
3.28451e-06
6.59199e-08
3.28357e-06
8.50186e-08
3.28004e-06
1.06191e-07
3.27703e-06
1.3435e-07
3.27444e-06
1.62994e-07
1.89966e-07
3.27354e-06
3.42888e-06
2.99084e-07
3.41657e-06
-3.06603e-07
3.43277e-06
2.33691e-07
3.42292e-06
-1.1393e-07
3.43034e-06
-9.99647e-08
3.42515e-06
2.51355e-08
3.43095e-06
-5.59358e-08
3.42836e-06
5.00516e-09
3.43281e-06
1.85771e-08
3.4336e-06
2.23276e-08
3.43693e-06
4.74666e-08
3.43824e-06
3.93281e-08
3.44066e-06
5.12603e-08
3.4415e-06
5.54646e-08
3.44194e-06
6.54816e-08
3.44156e-06
8.53923e-08
3.43868e-06
1.09072e-07
3.43555e-06
1.37483e-07
3.43114e-06
1.67407e-07
1.896e-07
3.4315e-06
3.59288e-06
2.89612e-07
3.57934e-06
-2.93056e-07
3.59706e-06
2.15968e-07
3.5861e-06
-1.02968e-07
3.59458e-06
-1.08451e-07
3.58902e-06
3.07036e-08
3.59484e-06
-6.17617e-08
3.59295e-06
6.89903e-09
3.5964e-06
1.51283e-08
3.59839e-06
2.03326e-08
3.60106e-06
4.4802e-08
3.60277e-06
3.76124e-08
3.60553e-06
4.85059e-08
3.60618e-06
5.48081e-08
3.60737e-06
6.42965e-08
3.60798e-06
8.47813e-08
3.60744e-06
1.09609e-07
3.60528e-06
1.39646e-07
3.5988e-06
1.73886e-07
1.9072e-07
3.59768e-06
3.7647e-06
2.7962e-07
3.74987e-06
-2.78227e-07
3.76912e-06
1.96716e-07
3.75719e-06
-9.10373e-08
3.7665e-06
-1.17763e-07
3.76096e-06
3.62472e-08
3.76633e-06
-6.71373e-08
3.76562e-06
7.61341e-09
3.76773e-06
1.30221e-08
3.77096e-06
1.70954e-08
3.77323e-06
4.25353e-08
3.77494e-06
3.59039e-08
3.77842e-06
4.5024e-08
3.77886e-06
5.43649e-08
3.78115e-06
6.2015e-08
3.78095e-06
8.49771e-08
3.77897e-06
1.11585e-07
3.77818e-06
1.40441e-07
3.7854e-06
1.66667e-07
2.05436e-07
3.77068e-06
3.94469e-06
2.69121e-07
3.92858e-06
-2.62121e-07
3.94927e-06
1.76027e-07
3.93663e-06
-7.83997e-08
3.9464e-06
-1.27533e-07
3.94143e-06
4.12156e-08
3.94578e-06
-7.14794e-08
3.94674e-06
6.65363e-09
3.94723e-06
1.25227e-08
3.95165e-06
1.26755e-08
3.95372e-06
4.04743e-08
3.95533e-06
3.42856e-08
3.95929e-06
4.10675e-08
3.95978e-06
5.38748e-08
3.95836e-06
6.34342e-08
3.95342e-06
8.99193e-08
3.94999e-06
1.15017e-07
3.94733e-06
1.43102e-07
3.94373e-06
1.7026e-07
2.01974e-07
3.94719e-06
4.13323e-06
2.58141e-07
4.11591e-06
-2.44798e-07
4.13783e-06
1.54106e-07
4.12487e-06
-6.54431e-08
4.13463e-06
-1.37287e-07
4.13086e-06
4.49865e-08
4.13361e-06
-7.42373e-08
4.13656e-06
3.70716e-09
4.13547e-06
1.3613e-08
4.1407e-06
7.43989e-09
4.14287e-06
3.83125e-08
4.14409e-06
3.30591e-08
4.14699e-06
3.81716e-08
4.14368e-06
5.71857e-08
4.13808e-06
6.90302e-08
4.13521e-06
9.27871e-08
4.13202e-06
1.18216e-07
4.12917e-06
1.45943e-07
4.12666e-06
1.72774e-07
1.97453e-07
4.13118e-06
4.33072e-06
2.46728e-07
4.31232e-06
-2.264e-07
4.33512e-06
1.31303e-07
4.32238e-06
-5.27037e-08
4.33155e-06
-1.46457e-07
4.32962e-06
4.69192e-08
4.33038e-06
-7.49945e-08
4.33531e-06
-1.22524e-09
4.33299e-06
1.59308e-08
4.33831e-06
2.12218e-09
4.34062e-06
3.60018e-08
4.33937e-06
3.43102e-08
4.33816e-06
3.93796e-08
4.33456e-06
6.07867e-08
4.32946e-06
7.41324e-08
4.32708e-06
9.51609e-08
4.32449e-06
1.20813e-07
4.32227e-06
1.48154e-07
4.32124e-06
1.73812e-07
1.93434e-07
4.32526e-06
4.53755e-06
2.34952e-07
4.51831e-06
-2.07164e-07
4.54148e-06
1.08131e-07
4.52963e-06
-4.08475e-08
4.53762e-06
-1.54447e-07
4.53808e-06
4.64593e-08
4.53664e-06
-7.3554e-08
4.54322e-06
-7.80373e-09
4.54018e-06
1.89648e-08
4.54424e-06
-1.93161e-09
4.54556e-06
3.4675e-08
4.54092e-06
3.89574e-08
4.53888e-06
4.14108e-08
4.53605e-06
6.36227e-08
4.53129e-06
7.88941e-08
4.52884e-06
9.76051e-08
4.52692e-06
1.22734e-07
4.52549e-06
1.49584e-07
4.52597e-06
1.7333e-07
1.90414e-07
4.52899e-06
4.75416e-06
2.22906e-07
4.73442e-06
-1.87421e-07
4.7573e-06
8.52525e-08
4.74705e-06
-3.06016e-08
4.75335e-06
-1.60744e-07
4.75648e-06
4.33294e-08
4.75304e-06
-7.01132e-08
4.76044e-06
-1.52042e-08
4.75695e-06
2.24515e-08
4.75794e-06
-2.91735e-09
4.75796e-06
3.46527e-08
4.75241e-06
4.45111e-08
4.75003e-06
4.37832e-08
4.74796e-06
6.57009e-08
4.74352e-06
8.3333e-08
4.74077e-06
1.0035e-07
4.73946e-06
1.24044e-07
4.73889e-06
1.50158e-07
4.7404e-06
1.71821e-07
1.87961e-07
4.74285e-06
4.981e-06
2.10701e-07
4.96117e-06
-1.67588e-07
4.98299e-06
6.34321e-08
4.97505e-06
-2.26615e-08
4.97933e-06
-1.65024e-07
4.985e-06
3.76632e-08
4.9801e-06
-6.52162e-08
4.98696e-06
-2.20626e-08
4.98257e-06
2.68373e-08
4.98019e-06
-5.38686e-10
4.98026e-06
3.45851e-08
4.97467e-06
5.00983e-08
4.97184e-06
4.66136e-08
4.97039e-06
6.71539e-08
4.96642e-06
8.72998e-08
4.96332e-06
1.03457e-07
4.96247e-06
1.24891e-07
4.96286e-06
1.49771e-07
4.9646e-06
1.70077e-07
1.8532e-07
4.96724e-06
5.21856e-06
1.98461e-07
5.19912e-06
-1.48148e-07
5.21907e-06
4.34736e-08
5.21395e-06
-1.75376e-08
5.21618e-06
-1.67255e-07
5.22383e-06
3.00159e-08
5.21796e-06
-5.93507e-08
5.22272e-06
-2.68192e-08
5.2173e-06
3.2255e-08
5.21295e-06
3.80921e-09
5.21333e-06
3.42055e-08
5.20817e-06
5.52604e-08
5.2047e-06
5.0085e-08
5.20368e-06
6.81754e-08
5.20037e-06
9.06129e-08
5.19701e-06
1.06818e-07
5.19647e-06
1.2543e-07
5.19765e-06
1.48587e-07
5.19953e-06
1.68192e-07
1.82319e-07
5.20254e-06
5.46733e-06
1.86322e-07
5.44881e-06
-1.29626e-07
5.46618e-06
2.61015e-08
5.46398e-06
-1.53351e-08
5.46447e-06
-1.67747e-07
5.4731e-06
2.13874e-08
5.46621e-06
-5.24672e-08
5.46815e-06
-2.87523e-08
5.4626e-06
3.77968e-08
5.45711e-06
9.30246e-09
5.45778e-06
3.35377e-08
5.4533e-06
5.97392e-08
5.4491e-06
5.42818e-08
5.44826e-06
6.90168e-08
5.44574e-06
9.31374e-08
5.44238e-06
1.10172e-07
5.44198e-06
1.2583e-07
5.44367e-06
1.46896e-07
5.44592e-06
1.65951e-07
1.79006e-07
5.44923e-06
5.72787e-06
1.74413e-07
5.71079e-06
-1.12547e-07
5.72508e-06
1.18066e-08
5.7253e-06
-1.55521e-08
5.72453e-06
-1.66974e-07
5.73275e-06
1.31629e-08
5.72445e-06
-4.41691e-08
5.72464e-06
-2.89359e-08
5.71961e-06
4.28259e-08
5.71337e-06
1.5542e-08
5.71409e-06
3.28152e-08
5.71049e-06
6.33447e-08
5.70562e-06
5.91468e-08
5.70466e-06
6.9973e-08
5.70299e-06
9.48115e-08
5.69998e-06
1.13185e-07
5.69957e-06
1.26238e-07
5.70151e-06
1.44955e-07
5.70425e-06
1.63207e-07
1.75377e-07
5.70788e-06
6.00075e-06
1.62852e-07
5.9856e-06
-9.73947e-08
5.99664e-06
7.65243e-10
5.99821e-06
-1.71166e-08
5.99638e-06
-1.65144e-07
6.00322e-06
6.31546e-09
5.99402e-06
-3.49678e-08
5.99325e-06
-2.81658e-08
5.98915e-06
4.69327e-08
5.98227e-06
2.24176e-08
5.98282e-06
3.22623e-08
5.98018e-06
6.59874e-08
5.97485e-06
6.44746e-08
5.97349e-06
7.13337e-08
5.97262e-06
9.56792e-08
5.9703e-06
1.15513e-07
5.9698e-06
1.26729e-07
5.9718e-06
1.42956e-07
5.97506e-06
1.5995e-07
1.71379e-07
5.97906e-06
6.28661e-06
1.5173e-07
6.27375e-06
-8.45321e-08
6.28173e-06
-7.21197e-09
6.28322e-06
-1.86101e-08
6.28017e-06
-1.62096e-07
6.28575e-06
7.40842e-10
6.27632e-06
-2.55412e-08
6.27483e-06
-2.66715e-08
6.27182e-06
4.9934e-08
6.2644e-06
2.98383e-08
6.26453e-06
3.21375e-08
6.2629e-06
6.76181e-08
6.25741e-06
6.99588e-08
6.25542e-06
7.33253e-08
6.25519e-06
9.59149e-08
6.25383e-06
1.16869e-07
6.25329e-06
1.27272e-07
6.25523e-06
1.41015e-07
6.2589e-06
1.56274e-07
1.66967e-07
6.26332e-06
6.58609e-06
1.41113e-07
6.57568e-06
-7.41286e-08
6.5811e-06
-1.26276e-08
6.58126e-06
-1.87707e-08
6.57695e-06
-1.5779e-07
6.58175e-06
-4.05566e-09
6.57229e-06
-1.60808e-08
6.57012e-06
-2.45038e-08
6.56823e-06
5.18284e-08
6.56041e-06
3.76531e-08
6.55981e-06
3.27374e-08
6.55917e-06
6.82608e-08
6.5539e-06
7.5226e-08
6.55118e-06
7.60519e-08
6.5513e-06
9.57902e-08
6.55107e-06
1.171e-07
6.55063e-06
1.27713e-07
6.55247e-06
1.39174e-07
6.55642e-06
1.52326e-07
1.6214e-07
6.56124e-06
6.89986e-06
1.31039e-07
6.89188e-06
-6.614e-08
6.89542e-06
-1.61762e-08
6.89352e-06
-1.68671e-08
6.88794e-06
-1.52212e-07
6.8922e-06
-8.3118e-09
6.88271e-06
-6.59293e-09
6.87978e-06
-2.15726e-08
6.87894e-06
5.26636e-08
6.87097e-06
4.56246e-08
6.86936e-06
3.43523e-08
6.86957e-06
6.80482e-08
6.8649e-06
7.98947e-08
6.8615e-06
7.94494e-08
6.8617e-06
9.55956e-08
6.86253e-06
1.16267e-07
6.86244e-06
1.27804e-07
6.86422e-06
1.37397e-07
6.86829e-06
1.48256e-07
1.56955e-07
6.87347e-06
7.22867e-06
1.21509e-07
7.22282e-06
-6.02963e-08
7.22531e-06
-1.86589e-08
7.22114e-06
-1.27032e-08
7.21408e-06
-1.45151e-07
7.21781e-06
-1.20429e-08
7.20831e-06
2.90783e-09
7.20445e-06
-1.77107e-08
7.20458e-06
5.25331e-08
7.1968e-06
5.34086e-08
7.19394e-06
3.72099e-08
7.19472e-06
6.72626e-08
7.19099e-06
8.36316e-08
7.18715e-06
8.32879e-08
7.18719e-06
9.55586e-08
7.18882e-06
1.1463e-07
7.18934e-06
1.27286e-07
7.19117e-06
1.35571e-07
7.19525e-06
1.44168e-07
1.51512e-07
7.2007e-06
7.57324e-06
1.12497e-07
7.5691e-06
-5.61596e-08
7.57127e-06
-2.08226e-08
7.56506e-06
-6.50027e-09
7.55621e-06
-1.36301e-07
7.55936e-06
-1.51892e-08
7.54982e-06
1.24447e-08
7.54483e-06
-1.27241e-08
7.54578e-06
5.15899e-08
7.53858e-06
6.06056e-08
7.53438e-06
4.14068e-08
7.53534e-06
6.63023e-08
7.53274e-06
8.62318e-08
7.52882e-06
8.72115e-08
7.52858e-06
9.57963e-08
7.53066e-06
1.12548e-07
7.53196e-06
1.25996e-07
7.534e-06
1.33529e-07
7.53806e-06
1.401e-07
1.45918e-07
7.54366e-06
7.93435e-06
1.03959e-07
7.93128e-06
-5.30932e-08
7.9339e-06
-2.34405e-08
7.92602e-06
1.3763e-09
7.91509e-06
-1.25365e-07
7.91756e-06
-1.7664e-08
7.90806e-06
2.19521e-08
7.9017e-06
-6.36922e-09
7.90321e-06
5.0077e-08
7.897e-06
6.68178e-08
7.89156e-06
4.68496e-08
7.89225e-06
6.56131e-08
7.8908e-06
8.76758e-08
7.8872e-06
9.08184e-08
7.8867e-06
9.62919e-08
7.8889e-06
1.10352e-07
7.89097e-06
1.23926e-07
7.8934e-06
1.31101e-07
7.89748e-06
1.36019e-07
1.40263e-07
7.90313e-06
8.3128e-06
9.5843e-08
8.31018e-06
-5.04797e-08
8.31365e-06
-2.69096e-08
8.30463e-06
1.04003e-08
8.29143e-06
-1.12162e-07
8.29313e-06
-1.93672e-08
8.28386e-06
3.12193e-08
8.2759e-06
1.59265e-09
8.27761e-06
4.83617e-08
8.27273e-06
7.17012e-08
8.26634e-06
5.32407e-08
8.26635e-06
6.56084e-08
8.26589e-06
8.81304e-08
8.26295e-06
9.37638e-08
8.26234e-06
9.69004e-08
8.26442e-06
1.08271e-07
8.26714e-06
1.21197e-07
8.27008e-06
1.28168e-07
8.27426e-06
1.31839e-07
1.34597e-07
8.27993e-06
8.70941e-06
8.80942e-08
8.70687e-06
-4.79423e-08
8.71073e-06
-3.07615e-08
8.70141e-06
1.9714e-08
8.68592e-06
-9.66687e-08
8.68679e-06
-2.02406e-08
8.67804e-06
3.99686e-08
8.6684e-06
1.12305e-08
8.6698e-06
4.69714e-08
8.66644e-06
7.50571e-08
8.65958e-06
6.01037e-08
8.65859e-06
6.65945e-08
8.65883e-06
8.78863e-08
8.65678e-06
9.5819e-08
8.65626e-06
9.74218e-08
8.65813e-06
1.06401e-07
8.66133e-06
1.17994e-07
8.66481e-06
1.24689e-07
8.66919e-06
1.27458e-07
1.28926e-07
8.67486e-06
9.12506e-06
8.06578e-08
9.1221e-06
-4.49866e-08
9.12615e-06
-3.48085e-08
9.11664e-06
2.92208e-08
9.09927e-06
-7.93007e-08
9.09928e-06
-2.02467e-08
9.09145e-06
4.77969e-08
9.08022e-06
2.24595e-08
9.08067e-06
4.65267e-08
9.07884e-06
7.68859e-08
9.07208e-06
6.68638e-08
9.06997e-06
6.87017e-08
9.07055e-06
8.73046e-08
9.0695e-06
9.68723e-08
9.06921e-06
9.7709e-08
9.07094e-06
1.04669e-07
9.07444e-06
1.14499e-07
9.07842e-06
1.20707e-07
9.08308e-06
1.228e-07
1.23216e-07
9.08879e-06
9.56063e-06
7.34874e-08
9.5563e-06
-4.06602e-08
9.56025e-06
-3.87528e-08
9.55115e-06
3.83171e-08
9.53226e-06
-6.04058e-08
9.53137e-06
-1.93565e-08
9.52488e-06
5.428e-08
9.5124e-06
3.49409e-08
9.51125e-06
4.76819e-08
9.5107e-06
7.74329e-08
9.50461e-06
7.29487e-08
9.5015e-06
7.18176e-08
9.50204e-06
8.67663e-08
9.50194e-06
9.69696e-08
9.50201e-06
9.76367e-08
9.50376e-06
1.02922e-07
9.50742e-06
1.10838e-07
9.51182e-06
1.16308e-07
9.51679e-06
1.17833e-07
1.17414e-07
9.52259e-06
1.00171e-05
6.65502e-08
1.00108e-05
-3.4405e-08
1.00144e-05
-4.22992e-08
1.0006e-05
4.67062e-08
9.9858e-06
-4.02362e-08
9.9839e-06
-1.74475e-08
9.97914e-06
5.90362e-08
9.96597e-06
4.81153e-08
9.9627e-06
5.09497e-08
9.9629e-06
7.72273e-08
9.95795e-06
7.79059e-08
9.95418e-06
7.55876e-08
9.95435e-06
8.65935e-08
9.95499e-06
9.63281e-08
9.95554e-06
9.70824e-08
9.95746e-06
1.01004e-07
9.96124e-06
1.07058e-07
9.96597e-06
1.11584e-07
9.97124e-06
1.12563e-07
1.1147e-07
9.97718e-06
1.04954e-05
5.98305e-08
1.04874e-05
-2.64303e-08
1.04898e-05
-4.46839e-08
1.04824e-05
5.41034e-08
1.04611e-05
-1.896e-08
1.04578e-05
-1.41919e-08
1.0455e-05
6.18837e-08
1.04419e-05
6.1252e-08
1.04363e-05
5.65526e-08
1.04365e-05
7.70012e-08
1.04329e-05
8.15252e-08
1.04289e-05
7.95128e-08
1.04286e-05
8.69425e-08
1.04297e-05
9.52548e-08
1.04307e-05
9.60102e-08
1.0433e-05
9.8768e-08
1.04369e-05
1.0314e-07
1.04419e-05
1.06607e-07
1.04474e-05
1.07024e-07
1.05357e-07
1.04535e-05
1.09965e-05
5.33274e-08
1.09882e-05
-1.80666e-08
1.09877e-05
-4.423e-08
1.09815e-05
6.02967e-08
1.09595e-05
3.02559e-09
1.09543e-05
-8.98978e-09
1.09533e-05
6.29521e-08
1.0941e-05
7.35434e-08
1.09331e-05
6.43702e-08
1.09326e-05
7.75101e-08
1.09302e-05
8.393e-08
1.09266e-05
8.31004e-08
1.09258e-05
8.77428e-08
1.09271e-05
9.40301e-08
1.09286e-05
9.45195e-08
1.09312e-05
9.60929e-08
1.09353e-05
9.9025e-08
1.09405e-05
1.01411e-07
1.09463e-05
1.01247e-07
9.90702e-08
1.09526e-05
1.15216e-05
4.70881e-08
1.15108e-05
-7.27855e-09
1.15096e-05
-4.29962e-08
1.15048e-05
6.50803e-08
1.14825e-05
2.5328e-08
1.14746e-05
-1.09849e-09
1.14748e-05
6.27159e-08
1.14641e-05
8.42622e-08
1.14546e-05
7.39325e-08
1.14527e-05
7.93793e-08
1.14511e-05
8.55133e-08
1.14482e-05
8.60101e-08
1.14472e-05
8.87568e-08
1.14484e-05
9.28195e-08
1.14501e-05
9.27914e-08
1.14533e-05
9.29294e-08
1.14577e-05
9.46481e-08
1.14631e-05
9.59952e-08
1.14691e-05
9.52548e-08
9.26177e-08
1.14755e-05
1.20717e-05
4.11893e-08
1.20591e-05
5.30202e-09
1.20558e-05
-3.96595e-08
1.20531e-05
6.77859e-08
1.20313e-05
4.71746e-08
1.20202e-05
1.00009e-08
1.20208e-05
6.2069e-08
1.20122e-05
9.28515e-08
1.20016e-05
8.45542e-08
1.1998e-05
8.30077e-08
1.19967e-05
8.67895e-08
1.19946e-05
8.81403e-08
1.19936e-05
8.96933e-08
1.19948e-05
9.1675e-08
1.19966e-05
9.09285e-08
1.20002e-05
8.93592e-08
1.20049e-05
8.99588e-08
1.20105e-05
9.03322e-08
1.20168e-05
8.90475e-08
8.5996e-08
1.20234e-05
1.2648e-05
3.57558e-08
1.26345e-05
1.88293e-08
1.26286e-05
-3.38023e-08
1.26275e-05
6.88903e-08
1.26068e-05
6.79207e-08
1.25925e-05
2.42988e-08
1.25924e-05
6.21808e-08
1.25861e-05
9.9119e-08
1.25752e-05
9.54268e-08
1.25698e-05
8.84688e-08
1.25682e-05
8.83237e-08
1.25668e-05
8.95809e-08
1.25662e-05
9.0328e-08
1.25673e-05
9.0585e-08
1.25693e-05
8.88474e-08
1.25731e-05
8.56024e-08
1.25781e-05
8.49128e-08
1.25841e-05
8.44212e-08
1.25905e-05
8.25982e-08
7.91802e-08
1.25973e-05
1.32517e-05
3.09414e-08
1.32389e-05
3.16293e-08
1.32294e-05
-2.42625e-08
1.32293e-05
6.90016e-08
1.32102e-05
8.69686e-08
1.31931e-05
4.14904e-08
1.31911e-05
6.4163e-08
1.31868e-05
1.03358e-07
1.31765e-05
1.05766e-07
1.31695e-05
9.5478e-08
1.31671e-05
9.06806e-08
1.31662e-05
9.05478e-08
1.31659e-05
9.05853e-08
1.3167e-05
8.94583e-08
1.31695e-05
8.64106e-08
1.31732e-05
8.18817e-08
1.31787e-05
7.94238e-08
1.31847e-05
7.83766e-08
1.31915e-05
7.58209e-08
7.2113e-08
1.31986e-05
1.38842e-05
2.69267e-08
1.38721e-05
4.36801e-08
1.38594e-05
-1.15567e-08
1.38596e-05
6.88632e-08
1.38428e-05
1.03764e-07
1.38232e-05
6.10179e-08
1.38185e-05
6.8896e-08
1.38156e-05
1.0631e-07
1.38064e-05
1.14955e-07
1.37983e-05
1.03527e-07
1.37948e-05
9.42298e-08
1.37939e-05
9.13948e-08
1.3794e-05
9.05026e-08
1.37953e-05
8.81544e-08
1.37981e-05
8.36295e-08
1.38018e-05
7.82031e-08
1.38078e-05
7.34279e-08
1.38138e-05
7.23708e-08
1.3821e-05
6.86079e-08
6.46993e-08
1.38284e-05
1.45467e-05
2.38657e-08
1.45352e-05
5.51801e-08
1.45203e-05
3.32392e-09
1.45196e-05
6.96349e-08
1.45055e-05
1.17874e-07
1.44844e-05
8.21058e-08
1.44764e-05
7.68949e-08
1.44737e-05
1.09013e-07
1.44659e-05
1.2269e-07
1.44574e-05
1.12098e-07
1.44526e-05
9.89923e-08
1.44514e-05
9.25892e-08
1.44518e-05
9.0164e-08
1.44533e-05
8.6598e-08
1.44563e-05
8.06847e-08
1.44603e-05
7.41958e-08
1.44663e-05
6.735e-08
1.44727e-05
6.59613e-08
1.44801e-05
6.12309e-08
5.67453e-08
1.44881e-05
1.52409e-05
2.1881e-08
1.5231e-05
6.50671e-08
1.52136e-05
2.07095e-08
1.52108e-05
7.23941e-08
1.51994e-05
1.29305e-07
1.51778e-05
1.03746e-07
1.51663e-05
8.83158e-08
1.51628e-05
1.12506e-07
1.51564e-05
1.29098e-07
1.51478e-05
1.20737e-07
1.5142e-05
1.04766e-07
1.51401e-05
9.45141e-08
1.51405e-05
8.97737e-08
1.51422e-05
8.48443e-08
1.51453e-05
7.76011e-08
1.51499e-05
6.96497e-08
1.51555e-05
6.1734e-08
1.51631e-05
5.83769e-08
1.51703e-05
5.39774e-08
4.83676e-08
1.51787e-05
1.59681e-05
2.11007e-08
1.59595e-05
7.36743e-08
1.59404e-05
3.97807e-08
1.59352e-05
7.76292e-08
1.59258e-05
1.38735e-07
1.59046e-05
1.24883e-07
1.589e-05
1.02934e-07
1.58848e-05
1.17688e-07
1.58792e-05
1.34696e-07
1.58709e-05
1.29093e-07
1.58643e-05
1.11349e-07
1.58615e-05
9.73192e-08
1.58616e-05
8.96758e-08
1.58634e-05
8.29889e-08
1.58667e-05
7.43578e-08
1.58716e-05
6.47536e-08
1.58771e-05
5.61759e-08
1.58851e-05
5.03696e-08
1.58936e-05
4.54943e-08
4.0578e-08
1.59014e-05
1.67302e-05
2.15505e-08
1.67221e-05
8.17637e-08
1.67026e-05
5.92289e-08
1.66944e-05
8.58119e-08
1.66861e-05
1.47098e-07
1.66661e-05
1.44803e-07
1.6649e-05
1.20108e-07
1.66414e-05
1.25268e-07
1.66359e-05
1.40223e-07
1.6628e-05
1.36985e-07
1.66207e-05
1.1862e-07
1.6617e-05
1.01042e-07
1.66165e-05
9.01589e-08
1.66183e-05
8.12246e-08
1.66216e-05
7.0999e-08
1.66265e-05
5.98524e-08
1.66327e-05
4.99951e-08
1.66408e-05
4.22751e-08
1.66498e-05
3.64715e-08
3.17445e-08
1.66587e-05
1.75287e-05
2.31647e-08
1.75229e-05
8.76426e-08
1.75019e-05
8.01534e-08
1.74903e-05
9.74356e-08
1.74821e-05
1.55334e-07
1.74637e-05
1.63227e-07
1.74447e-05
1.39068e-07
1.74343e-05
1.35627e-07
1.74281e-05
1.46489e-07
1.74205e-05
1.44525e-07
1.74127e-05
1.26413e-07
1.74079e-05
1.05846e-07
1.74068e-05
9.13442e-08
1.74081e-05
7.99012e-08
1.74114e-05
6.76649e-08
1.74164e-05
5.48478e-08
1.74231e-05
4.32915e-08
1.74315e-05
3.39126e-08
1.7441e-05
2.69423e-08
2.16212e-08
1.74511e-05
1.83657e-05
2.58339e-08
1.83599e-05
9.34046e-08
1.83396e-05
1.00445e-07
1.83248e-05
1.12296e-07
1.83157e-05
1.64371e-07
1.82987e-05
1.8024e-07
1.82786e-05
1.59149e-07
1.82655e-05
1.48808e-07
1.82577e-05
1.54261e-07
1.82501e-05
1.52111e-07
1.82419e-05
1.34646e-07
1.82359e-05
1.11843e-07
1.82337e-05
9.34668e-08
1.82343e-05
7.93587e-08
1.82374e-05
6.45415e-08
1.82426e-05
4.96917e-08
1.82496e-05
3.62091e-08
1.82585e-05
2.50361e-08
1.82688e-05
1.66401e-08
1.04087e-08
1.828e-05
1.92428e-05
2.93933e-08
1.92373e-05
9.89556e-08
1.92173e-05
1.20389e-07
1.91997e-05
1.29971e-07
1.9189e-05
1.75016e-07
1.9173e-05
1.96246e-07
1.91523e-05
1.79834e-07
1.91365e-05
1.64623e-07
1.91266e-05
1.64162e-07
1.91184e-05
1.60358e-07
1.91096e-05
1.43451e-07
1.91024e-05
1.19038e-07
1.90989e-05
9.69572e-08
1.90983e-05
7.99058e-08
1.9101e-05