/*--------------------------------*- C++ -*----------------------------------*\
| =========                 |                                                 |
| \\      /  F ield         | OpenFOAM: The Open Source CFD Toolbox           |
|  \\    /   O peration     | Version:  v2012                                 |
|   \\  /    A nd           | Website:  www.openfoam.com                      |
|    \\/     M anipulation  |                                                 |
\*---------------------------------------------------------------------------*/
FoamFile
{
    version     2.0;
    format      ascii;
    class       volVectorField;
    location    "2.1";
    object      U;
}
// * * * * * * * * * * * * * * * * * * * * * * * * * * * * * * * * * * * * * //

dimensions      [0 1 -1 0 0 0 0];


internalField   nonuniform List<vector> 
17600
(
(0.840681 0.00376672 0)
(1.1547 -0.0056141 0)
(0.837815 0.00446681 0)
(1.147 -0.0020319 0)
(0.833088 -0.00174637 0)
(1.13687 0.00082973 0)
(0.847334 -0.000658839 0)
(1.13124 0.00041232 0)
(0.857603 0.0012937 0)
(1.1281 0.00136757 0)
(0.866581 0.00212545 0)
(1.12165 0.00125616 0)
(0.868939 0.00241084 0)
(1.11498 0.000998682 0)
(0.866576 0.00253762 0)
(1.10885 0.00073336 0)
(0.859163 0.00277978 0)
(1.10416 0.000630938 0)
(0.845331 0.00365132 0)
(1.09934 0.000887088 0)
(0.849801 0.00371376 0)
(1.1412 -0.00539711 0)
(0.846219 0.00434353 0)
(1.13125 -0.00180069 0)
(0.84519 -0.00186061 0)
(1.12098 0.000896697 0)
(0.863432 -0.000816171 0)
(1.1138 0.00049431 0)
(0.877281 0.00111319 0)
(1.10678 0.00146924 0)
(0.892226 0.00198064 0)
(1.09412 0.00143433 0)
(0.903347 0.00230625 0)
(1.07771 0.00123205 0)
(0.914358 0.00253479 0)
(1.05618 0.000947449 0)
(0.927698 0.00310825 0)
(1.02712 0.00058034 0)
(0.945679 0.00513112 0)
(0.984176 0.000111516 0)
(0.867763 0.00369294 0)
(1.11896 -0.00517727 0)
(0.864123 0.00422424 0)
(1.10538 -0.00160748 0)
(0.869783 -0.00195965 0)
(1.09207 0.000895887 0)
(0.892562 -0.000930388 0)
(1.08238 0.000508267 0)
(0.910707 0.0010044 0)
(1.0712 0.00145514 0)
(0.931085 0.0019846 0)
(1.05426 0.00142355 0)
(0.94729 0.00244458 0)
(1.03453 0.00117146 0)
(0.961208 0.00285072 0)
(1.01313 0.000805497 0)
(0.972026 0.00359975 0)
(0.992288 0.000469152 0)
(0.977163 0.00564233 0)
(0.973854 0.00114132 0)
(0.891998 0.00371904 0)
(1.09225 -0.00500035 0)
(0.889272 0.00417993 0)
(1.07563 -0.00153533 0)
(0.902229 -0.001963 0)
(1.05832 0.000785437 0)
(0.926178 -0.000935254 0)
(1.04775 0.000396543 0)
(0.944425 0.00103723 0)
(1.03655 0.00128407 0)
(0.963914 0.0021326 0)
(1.02267 0.00125041 0)
(0.976773 0.00269565 0)
(1.0093 0.0010005 0)
(0.984209 0.00318274 0)
(0.997544 0.000678017 0)
(0.986045 0.00395045 0)
(0.98822 0.000522034 0)
(0.982201 0.00588279 0)
(0.979908 0.00227773 0)
(0.918623 0.00377304 0)
(1.06566 -0.00486185 0)
(0.917106 0.004199 0)
(1.04834 -0.00156869 0)
(0.934794 -0.00187178 0)
(1.02914 0.000618869 0)
(0.955195 -0.000878081 0)
(1.02067 0.000233717 0)
(0.96888 0.00111527 0)
(1.01356 0.00108179 0)
(0.983057 0.00226339 0)
(1.00644 0.00109853 0)
(0.9902 0.00285997 0)
(1.00058 0.000917609 0)
(0.99229 0.00336779 0)
(0.995277 0.000676996 0)
(0.990379 0.00414532 0)
(0.989958 0.000678252 0)
(0.985269 0.00607367 0)
(0.983007 0.00331757 0)
(0.943592 0.00383525 0)
(1.04318 -0.00475622 0)
(0.942833 0.00424937 0)
(1.02797 -0.00166758 0)
(0.961299 -0.00172934 0)
(1.01012 0.000460631 0)
(0.975301 -0.000815213 0)
(1.00526 9.86622e-05 0)
(0.982929 0.00116615 0)
(1.00283 0.000928033 0)
(0.991854 0.00231896 0)
(1.00099 0.00100966 0)
(0.995457 0.00292866 0)
(0.999304 0.000897565 0)
(0.995689 0.00346162 0)
(0.996471 0.000725953 0)
(0.993302 0.00426363 0)
(0.992224 0.000892512 0)
(0.988548 0.00622302 0)
(0.985935 0.00426413 0)
(0.963925 0.00388755 0)
(1.02694 -0.00467499 0)
(0.963292 0.00430067 0)
(1.01565 -0.00178921 0)
(0.979522 -0.00158053 0)
(1.00119 0.000346638 0)
(0.987243 -0.000767871 0)
(0.999158 1.39173e-05 0)
(0.990098 0.00118184 0)
(0.99958 0.000821627 0)
(0.995769 0.00232327 0)
(1.00023 0.00094861 0)
(0.998049 0.00295089 0)
(1.00023 0.000888701 0)
(0.998096 0.00351654 0)
(0.998374 0.000792157 0)
(0.99598 0.00432651 0)
(0.994758 0.00118013 0)
(0.991639 0.0062874 0)
(0.989207 0.00516641 0)
(0.97846 0.00391672 0)
(1.01677 -0.00460828 0)
(0.977631 0.00433238 0)
(1.00962 -0.00190349 0)
(0.990469 -0.00145024 0)
(0.998779 0.000279101 0)
(0.993851 -0.000730253 0)
(0.997964 -3.35028e-05 0)
(0.993917 0.0011805 0)
(0.99941 0.000740252 0)
(0.997944 0.0023068 0)
(1.0008 0.000892336 0)
(0.999846 0.00295244 0)
(1.00148 0.0008779 0)
(1.0001 0.00354535 0)
(1.00022 0.000874624 0)
(0.99833 0.00433779 0)
(0.997158 0.00153297 0)
(0.994436 0.00627165 0)
(0.992295 0.00601942 0)
(0.987724 0.00391885 0)
(1.01103 -0.00454918 0)
(0.986738 0.00433773 0)
(1.00715 -0.00199719 0)
(0.996397 -0.00134446 0)
(0.999145 0.000242193 0)
(0.997578 -0.000692143 0)
(0.99851 -6.09943e-05 0)
(0.996312 0.00117709 0)
(1.00007 0.000671269 0)
(0.999477 0.00228518 0)
(1.00151 0.000837511 0)
(1.00121 0.00294049 0)
(1.00251 0.000868927 0)
(1.00166 0.00354614 0)
(1.0017 0.000979011 0)
(1.00022 0.00429846 0)
(0.999132 0.00193269 0)
(0.996799 0.00620406 0)
(0.994922 0.00679922 0)
(0.993154 0.00389856 0)
(1.00783 -0.00449421 0)
(0.992188 0.00432006 0)
(1.00612 -0.00206823 0)
(0.999362 -0.00125967 0)
(1.00007 0.00021933 0)
(0.999824 -0.000650346 0)
(0.999359 -7.95705e-05 0)
(0.998047 0.00117687 0)
(1.00083 0.00061056 0)
(1.00068 0.00226368 0)
(1.00212 0.000787229 0)
(1.00223 0.00291598 0)
(1.00327 0.00086856 0)
(1.0028 0.00351427 0)
(1.00279 0.00111115 0)
(1.00164 0.00421097 0)
(1.00064 0.00236235 0)
(0.99867 0.00611522 0)
(0.997041 0.00747968 0)
(0.996233 0.00386389 0)
(1.00586 -0.00444163 0)
(0.995416 0.00428551 0)
(1.00546 -0.00211838 0)
(1.00075 -0.00119116 0)
(1.00075 0.00019975 0)
(1.00124 -0.000607293 0)
(1.00009 -9.49414e-05 0)
(0.999388 0.00117863 0)
(1.00155 0.000556862 0)
(1.00167 0.00224208 0)
(1.00267 0.000745336 0)
(1.00302 0.00287748 0)
(1.00386 0.000883799 0)
(1.00363 0.00344639 0)
(1.00359 0.0012738 0)
(1.00268 0.00408332 0)
(1.00178 0.00280431 0)
(1.00011 0.006036 0)
(0.998707 0.00804071 0)
(0.998017 0.00382168 0)
(1.00451 -0.00439001 0)
(0.997385 0.00423851 0)
(1.00489 -0.00214972 0)
(1.00136 -0.00113595 0)
(1.00111 0.000178732 0)
(1.00215 -0.000567064 0)
(1.00066 -0.00011054 0)
(1.00043 0.00117836 0)
(1.00222 0.00050951 0)
(1.0025 0.00221735 0)
(1.0032 0.000715482 0)
(1.00366 0.00282256 0)
(1.00436 0.000920562 0)
(1.00425 0.00334312 0)
(1.0042 0.00146455 0)
(1.00345 0.00393128 0)
(1.00263 0.00323658 0)
(1.00121 0.00599437 0)
(1 0.00847485 0)
(0.999086 0.00377571 0)
(1.00355 -0.00433805 0)
(0.998622 0.00418124 0)
(1.00442 -0.00216428 0)
(1.00162 -0.00109235 0)
(1.00128 0.000155614 0)
(1.0027 -0.000532661 0)
(1.00107 -0.000127572 0)
(1.0012 0.00117209 0)
(1.00278 0.000468295 0)
(1.00317 0.00218528 0)
(1.00368 0.000700755 0)
(1.00418 0.00274851 0)
(1.00479 0.000982002 0)
(1.00472 0.00320958 0)
(1.00466 0.00167607 0)
(1.00402 0.00377727 0)
(1.00326 0.00363619 0)
(1.00205 0.00600893 0)
(1.001 0.00879042 0)
(0.999722 0.00372726 0)
(1.00291 -0.00428452 0)
(0.999392 0.00411462 0)
(1.00408 -0.00216438 0)
(1.00172 -0.00105895 0)
(1.00137 0.000131639 0)
(1.00302 -0.000506059 0)
(1.00136 -0.000144147 0)
(1.00172 0.00115744 0)
(1.00322 0.000433764 0)
(1.00366 0.00214207 0)
(1.00406 0.000702926 0)
(1.00456 0.00265385 0)
(1.00512 0.00106693 0)
(1.00507 0.00305456 0)
(1.005 0.00189646 0)
(1.00443 0.00364487 0)
(1.00372 0.00398597 0)
(1.00268 0.00608401 0)
(1.00177 0.00900826 0)
(1.00007 0.00367634 0)
(1.00254 -0.00422829 0)
(0.999847 0.00403911 0)
(1.00386 -0.00215227 0)
(1.00177 -0.00103481 0)
(1.00142 0.000109531 0)
(1.00319 -0.000488082 0)
(1.00155 -0.000160245 0)
(1.00204 0.00113233 0)
(1.00353 0.000407805 0)
(1.00398 0.00208458 0)
(1.00434 0.000722866 0)
(1.00483 0.0025384 0)
(1.00535 0.00117117 0)
(1.00531 0.00288888 0)
(1.00523 0.00211186 0)
(1.00472 0.00355101 0)
(1.00406 0.00428121 0)
(1.00316 0.00621194 0)
(1.00236 0.00915458 0)
(1.00025 0.00362256 0)
(1.00235 -0.0041683 0)
(1.0001 0.00395483 0)
(1.00372 -0.0021295 0)
(1.00181 -0.00101986 0)
(1.00145 9.25963e-05 0)
(1.00328 -0.000479575 0)
(1.00168 -0.000172782 0)
(1.00223 0.00109452 0)
(1.00372 0.000393004 0)
(1.00417 0.00200997 0)
(1.00451 0.000760545 0)
(1.00499 0.00240354 0)
(1.0055 0.00128815 0)
(1.00546 0.00272496 0)
(1.00538 0.00230932 0)
(1.00493 0.00350297 0)
(1.00431 0.00452887 0)
(1.00354 0.00637757 0)
(1.00284 0.00925356 0)
(1.00032 0.00356555 0)
(1.00226 -0.00410349 0)
(1.00022 0.00386161 0)
(1.00362 -0.00209693 0)
(1.00184 -0.00101424 0)
(1.00148 8.28664e-05 0)
(1.00332 -0.000482229 0)
(1.00176 -0.000176091 0)
(1.00233 0.00104261 0)
(1.00383 0.000390659 0)
(1.00428 0.0019173 0)
(1.00461 0.000813225 0)
(1.00509 0.00225479 0)
(1.00558 0.00140686 0)
(1.00556 0.00257752 0)
(1.00547 0.00247834 0)
(1.00509 0.00350147 0)
(1.00452 0.00473907 0)
(1.00385 0.00656262 0)
(1.00325 0.00932305 0)
(1.00033 0.00350497 0)
(1.00223 -0.00403282 0)
(1.00029 0.00375912 0)
(1.00354 -0.00205498 0)
(1.00188 -0.00101861 0)
(1.0015 8.20311e-05 0)
(1.00334 -0.000497769 0)
(1.00183 -0.000168829 0)
(1.00239 0.000976118 0)
(1.0039 0.000400825 0)
(1.00434 0.00180827 0)
(1.00467 0.000875276 0)
(1.00514 0.00210124 0)
(1.00563 0.00151331 0)
(1.00563 0.00245813 0)
(1.00554 0.00261554 0)
(1.00522 0.00354194 0)
(1.00471 0.00492179 0)
(1.00414 0.0067528 0)
(1.00362 0.00937619 0)
(1.00033 0.0034405 0)
(1.00222 -0.00395537 0)
(1.00032 0.00364652 0)
(1.00346 -0.0020025 0)
(1.00192 -0.00103576 0)
(1.00151 9.27944e-05 0)
(1.00335 -0.000527426 0)
(1.00188 -0.000149939 0)
(1.00243 0.000895073 0)
(1.00395 0.000422076 0)
(1.00438 0.00168752 0)
(1.0047 0.000939732 0)
(1.00518 0.00195371 0)
(1.00566 0.00159568 0)
(1.00569 0.00236774 0)
(1.0056 0.00272487 0)
(1.00535 0.00361339 0)
(1.0049 0.00508737 0)
(1.00441 0.00694159 0)
(1.00397 0.00942575 0)
(1.00031 0.00337204 0)
(1.00222 -0.0038705 0)
(1.00035 0.00352271 0)
(1.00338 -0.00193848 0)
(1.00196 -0.0010666 0)
(1.00153 0.000116856 0)
(1.00335 -0.000572484 0)
(1.00193 -0.000118447 0)
(1.00246 0.00080104 0)
(1.004 0.000449584 0)
(1.00441 0.00156101 0)
(1.00472 0.000998209 0)
(1.00522 0.00182307 0)
(1.00568 0.0016507 0)
(1.00575 0.00229938 0)
(1.00567 0.00281269 0)
(1.00548 0.00370028 0)
(1.00509 0.00524139 0)
(1.00468 0.00712593 0)
(1.00431 0.00948388 0)
(1.00029 0.00329933 0)
(1.00222 -0.00377695 0)
(1.00037 0.00338615 0)
(1.0033 -0.00186187 0)
(1.002 -0.0011124 0)
(1.00154 0.000154738 0)
(1.00336 -0.000633679 0)
(1.00198 -7.55435e-05 0)
(1.00249 0.000698353 0)
(1.00403 0.000479069 0)
(1.00444 0.00143408 0)
(1.00474 0.00104019 0)
(1.00525 0.00171363 0)
(1.00571 0.00168372 0)
(1.0058 0.00224756 0)
(1.00574 0.00288734 0)
(1.00561 0.0037922 0)
(1.00529 0.00538304 0)
(1.00495 0.00730148 0)
(1.00464 0.0095576 0)
(1.00027 0.00322204 0)
(1.00222 -0.00367313 0)
(1.00039 0.00323507 0)
(1.00322 -0.00177075 0)
(1.00205 -0.00117638 0)
(1.00156 0.000206614 0)
(1.00337 -0.000710234 0)
(1.00203 -2.39913e-05 0)
(1.00252 0.000590026 0)
(1.00407 0.000508208 0)
(1.00447 0.00131558 0)
(1.00476 0.00105649 0)
(1.00527 0.00162211 0)
(1.00573 0.00169719 0)
(1.00586 0.00220983 0)
(1.00582 0.00295254 0)
(1.00575 0.00389045 0)
(1.00551 0.00550857 0)
(1.00523 0.00746335 0)
(1.00496 0.00964576 0)
(1.00025 0.00313976 0)
(1.00222 -0.00355731 0)
(1.00041 0.00306768 0)
(1.00313 -0.0016632 0)
(1.0021 -0.00125918 0)
(1.00158 0.000272921 0)
(1.00338 -0.000801694 0)
(1.00208 3.36917e-05 0)
(1.00255 0.00048064 0)
(1.0041 0.00052577 0)
(1.00449 0.00122079 0)
(1.00478 0.00104278 0)
(1.0053 0.00154639 0)
(1.00576 0.00168688 0)
(1.00592 0.00218179 0)
(1.00592 0.00300006 0)
(1.00591 0.00399924 0)
(1.00575 0.00560992 0)
(1.00552 0.00760821 0)
(1.00529 0.00973988 0)
(1.00022 0.00305179 0)
(1.00222 -0.00342861 0)
(1.00043 0.00288209 0)
(1.00304 -0.00153936 0)
(1.00215 -0.00135973 0)
(1.00159 0.000352055 0)
(1.00338 -0.000899504 0)
(1.00213 8.93925e-05 0)
(1.00258 0.000387704 0)
(1.00414 0.00050786 0)
(1.00452 0.00115901 0)
(1.0048 0.000999587 0)
(1.00533 0.00148901 0)
(1.00579 0.00165757 0)
(1.00599 0.0021612 0)
(1.00602 0.00301963 0)
(1.00607 0.00411508 0)
(1.00599 0.00567622 0)
(1.00582 0.00773089 0)
(1.00561 0.0098282 0)
(1.0002 0.00296019 0)
(1.00221 -0.00328973 0)
(1.00046 0.00268117 0)
(1.00295 -0.00140533 0)
(1.0022 -0.001472 0)
(1.00161 0.000433367 0)
(1.00339 -0.00099383 0)
(1.00218 0.000123721 0)
(1.0026 0.000326417 0)
(1.00418 0.000450096 0)
(1.00454 0.00111448 0)
(1.00482 0.000940231 0)
(1.00536 0.00142951 0)
(1.00583 0.00163506 0)
(1.00606 0.00213917 0)
(1.00614 0.00302445 0)
(1.00624 0.00421559 0)
(1.00625 0.00571597 0)
(1.00615 0.00779385 0)
(1.00594 0.0098913 0)
(1.00018 0.00286231 0)
(1.00221 -0.00313359 0)
(1.00048 0.00245609 0)
(1.00286 -0.00125092 0)
(1.00225 -0.00160543 0)
(1.00163 0.000526315 0)
(1.00339 -0.00109805 0)
(1.00224 0.000154227 0)
(1.00262 0.000269887 0)
(1.00422 0.000394181 0)
(1.00457 0.00104595 0)
(1.00483 0.00091476 0)
(1.0054 0.00131853 0)
(1.00586 0.00166498 0)
(1.00614 0.00208579 0)
(1.00627 0.00306972 0)
(1.00642 0.00426297 0)
(1.00651 0.00579978 0)
(1.00649 0.00775062 0)
(1.00629 0.00991028 0)
(1.00016 0.00275859 0)
(1.00219 -0.0029616 0)
(1.00051 0.00221088 0)
(1.00276 -0.00108437 0)
(1.00231 -0.00174738 0)
(1.00164 0.000615862 0)
(1.0034 -0.00118645 0)
(1.00229 0.000157439 0)
(1.00264 0.000240643 0)
(1.00426 0.000318528 0)
(1.0046 0.000981984 0)
(1.00485 0.000902398 0)
(1.00544 0.0011991 0)
(1.0059 0.00170099 0)
(1.00623 0.00205904 0)
(1.00641 0.00313175 0)
(1.00662 0.00433248 0)
(1.00678 0.00591988 0)
(1.00683 0.00771257 0)
(1.00667 0.00989884 0)
(1.00013 0.00265129 0)
(1.00218 -0.00277787 0)
(1.00054 0.00195632 0)
(1.00266 -0.000919249 0)
(1.00236 -0.00188024 0)
(1.00166 0.000680009 0)
(1.00339 -0.00123304 0)
(1.00236 9.92036e-05 0)
(1.00265 0.000265277 0)
(1.0043 0.000199639 0)
(1.00463 0.000948666 0)
(1.00486 0.000874513 0)
(1.00548 0.00111732 0)
(1.00595 0.00170336 0)
(1.00631 0.0021275 0)
(1.00657 0.0031827 0)
(1.00683 0.00448009 0)
(1.00705 0.00603762 0)
(1.00718 0.00776542 0)
(1.00707 0.00984455 0)
(1.00011 0.00253741 0)
(1.00216 -0.00257607 0)
(1.00057 0.00168304 0)
(1.00255 -0.000746167 0)
(1.00241 -0.0020151 0)
(1.00169 0.000727244 0)
(1.00338 -0.00125503 0)
(1.00242 1.8429e-05 0)
(1.00266 0.000303396 0)
(1.00434 8.89536e-05 0)
(1.00466 0.000907472 0)
(1.00487 0.000882432 0)
(1.00553 0.00106914 0)
(1.00601 0.0017374 0)
(1.00641 0.00226467 0)
(1.00674 0.00326156 0)
(1.00705 0.0046323 0)
(1.00732 0.00618025 0)
(1.00752 0.0078528 0)
(1.00747 0.00979174 0)
(1.00008 0.00242032 0)
(1.00213 -0.0023628 0)
(1.0006 0.00140184 0)
(1.00245 -0.000581871 0)
(1.00246 -0.00213781 0)
(1.00171 0.00073247 0)
(1.00336 -0.00123695 0)
(1.00249 -8.48887e-05 0)
(1.00266 0.000359506 0)
(1.00437 -8.39473e-06 0)
(1.0047 0.000853715 0)
(1.00487 0.000938052 0)
(1.00557 0.00107606 0)
(1.00609 0.00182221 0)
(1.00651 0.00244069 0)
(1.00691 0.00336308 0)
(1.00729 0.00474344 0)
(1.0076 0.00631711 0)
(1.00786 0.00793505 0)
(1.00785 0.00973444 0)
(1.00006 0.00229883 0)
(1.00209 -0.00214235 0)
(1.00062 0.00112506 0)
(1.00234 -0.000439674 0)
(1.00251 -0.00223424 0)
(1.00174 0.000693044 0)
(1.00334 -0.00118329 0)
(1.00256 -0.00021136 0)
(1.00267 0.000431776 0)
(1.0044 -6.69704e-05 0)
(1.00476 0.000801767 0)
(1.00488 0.00103577 0)
(1.00562 0.00112675 0)
(1.00618 0.00192733 0)
(1.00661 0.00263156 0)
(1.00708 0.00347517 0)
(1.00753 0.00481077 0)
(1.00789 0.00640682 0)
(1.00819 0.00799371 0)
(1.00823 0.00966567 0)
(1.00004 0.00217599 0)
(1.00205 -0.00192068 0)
(1.00065 0.000858748 0)
(1.00223 -0.00032836 0)
(1.00255 -0.00229924 0)
(1.00177 0.000620847 0)
(1.0033 -0.0011099 0)
(1.00264 -0.000343048 0)
(1.00268 0.000502934 0)
(1.00441 -5.1243e-05 0)
(1.00482 0.000775819 0)
(1.00489 0.00116722 0)
(1.00567 0.00120394 0)
(1.00628 0.0020179 0)
(1.00672 0.00281389 0)
(1.00724 0.00359849 0)
(1.00779 0.00484238 0)
(1.0082 0.00643443 0)
(1.00852 0.00800775 0)
(1.00859 0.00957827 0)
(1.00002 0.00205209 0)
(1.00199 -0.00170135 0)
(1.00068 0.000609885 0)
(1.00211 -0.000252213 0)
(1.00258 -0.0023373 0)
(1.00181 0.000518686 0)
(1.00327 -0.00102152 0)
(1.00271 -0.000448607 0)
(1.00269 0.00058216 0)
(1.00443 1.91005e-05 0)
(1.00488 0.000780824 0)
(1.00491 0.00131728 0)
(1.00572 0.00130107 0)
(1.00639 0.00207396 0)
(1.00683 0.0029628 0)
(1.0074 0.003729 0)
(1.00804 0.00484873 0)
(1.00851 0.0064007 0)
(1.00886 0.00796274 0)
(1.00894 0.00945835 0)
(0.999995 0.00192833 0)
(1.00193 -0.00149246 0)
(1.0007 0.000394363 0)
(1.002 -0.00021689 0)
(1.00261 -0.00234904 0)
(1.00185 0.000393282 0)
(1.00322 -0.000919178 0)
(1.00278 -0.000512209 0)
(1.00271 0.000678566 0)
(1.00443 0.000121752 0)
(1.00496 0.000792517 0)
(1.00493 0.00146989 0)
(1.00575 0.00141803 0)
(1.0065 0.00209518 0)
(1.00695 0.0030686 0)
(1.00754 0.00386297 0)
(1.00828 0.00485832 0)
(1.00882 0.00632903 0)
(1.0092 0.00787317 0)
(1.00927 0.00931316 0)
(0.999974 0.00180681 0)
(1.00187 -0.00129723 0)
(1.00072 0.000213667 0)
(1.00189 -0.000213632 0)
(1.00263 -0.00234468 0)
(1.0019 0.000265803 0)
(1.00318 -0.000802515 0)
(1.00286 -0.000539788 0)
(1.00273 0.000781072 0)
(1.00443 0.000250043 0)
(1.00503 0.00079118 0)
(1.00496 0.00159956 0)
(1.00578 0.00155041 0)
(1.00661 0.00209188 0)
(1.00709 0.00312766 0)
(1.00769 0.00399073 0)
(1.0085 0.00489169 0)
(1.00914 0.006247 0)
(1.00954 0.00775428 0)
(1.0096 0.00914848 0)
(0.999954 0.00168834 0)
(1.0018 -0.00112233 0)
(1.00073 7.09979e-05 0)
(1.00178 -0.000229369 0)
(1.00264 -0.00233164 0)
(1.00196 0.000148601 0)
(1.00314 -0.000671937 0)
(1.00293 -0.000532927 0)
(1.00276 0.000879183 0)
(1.00441 0.000393546 0)
(1.00511 0.000777086 0)
(1.005 0.00168858 0)
(1.00579 0.00169521 0)
(1.00672 0.00209025 0)
(1.00725 0.00314354 0)
(1.00784 0.00409587 0)
(1.00871 0.00494611 0)
(1.00945 0.0061673 0)
(1.00989 0.00760725 0)
(1.00993 0.00895627 0)
(0.999935 0.00157336 0)
(1.00172 -0.000970914 0)
(1.00074 -3.91758e-05 0)
(1.00167 -0.000249977 0)
(1.00265 -0.00230724 0)
(1.00202 4.44061e-05 0)
(1.0031 -0.000524296 0)
(1.00301 -0.000503403 0)
(1.0028 0.000967439 0)
(1.00438 0.000548389 0)
(1.00518 0.000761694 0)
(1.00505 0.00174707 0)
(1.00579 0.00185612 0)
(1.00682 0.00212232 0)
(1.00742 0.00313148 0)
(1.008 0.00416861 0)
(1.00891 0.00500883 0)
(1.00974 0.00609787 0)
(1.01023 0.0074392 0)
(1.01026 0.00873642 0)
(0.999917 0.00146402 0)
(1.00164 -0.000845755 0)
(1.00074 -0.00012209 0)
(1.00156 -0.000254634 0)
(1.00266 -0.00226759 0)
(1.00209 -3.69655e-05 0)
(1.00306 -0.000361684 0)
(1.00309 -0.000464979 0)
(1.00285 0.0010337 0)
(1.00435 0.000716054 0)
(1.00524 0.00075049 0)
(1.00511 0.00177674 0)
(1.00579 0.00202288 0)
(1.0069 0.00219273 0)
(1.0076 0.00310252 0)
(1.00818 0.00420008 0)
(1.0091 0.00506139 0)
(1.01001 0.00603858 0)
(1.01056 0.00725995 0)
(1.01058 0.00849259 0)
(0.999901 0.00136043 0)
(1.00156 -0.000751869 0)
(1.00074 -0.000170096 0)
(1.00145 -0.000233993 0)
(1.00266 -0.00220346 0)
(1.00217 -0.000103674 0)
(1.00303 -0.00019747 0)
(1.00316 -0.000422505 0)
(1.00291 0.00106858 0)
(1.0043 0.000893136 0)
(1.00529 0.000754134 0)
(1.00519 0.0017709 0)
(1.00579 0.00217969 0)
(1.00696 0.00229615 0)
(1.00777 0.00307353 0)
(1.00837 0.00419056 0)
(1.00929 0.00508986 0)
(1.01026 0.00598342 0)
(1.01088 0.00707679 0)
(1.0109 0.00822853 0)
(0.999887 0.00126369 0)
(1.00148 -0.000686947 0)
(1.00074 -0.000203841 0)
(1.00134 -0.000188087 0)
(1.00266 -0.00211462 0)
(1.00227 -0.000162391 0)
(1.003 -3.38192e-05 0)
(1.00322 -0.000368488 0)
(1.00298 0.00107294 0)
(1.00425 0.00107343 0)
(1.00533 0.000793236 0)
(1.00529 0.00173556 0)
(1.00581 0.00231263 0)
(1.007 0.00242749 0)
(1.00794 0.00306171 0)
(1.00858 0.00414845 0)
(1.00949 0.00508506 0)
(1.01049 0.00592344 0)
(1.01118 0.00689428 0)
(1.01121 0.0079514 0)
(0.999874 0.00117316 0)
(1.0014 -0.00064266 0)
(1.00075 -0.000230916 0)
(1.00124 -0.000116492 0)
(1.00265 -0.00199992 0)
(1.00237 -0.000211613 0)
(1.00298 0.00013038 0)
(1.00328 -0.000286351 0)
(1.00307 0.00105785 0)
(1.00421 0.00125061 0)
(1.00536 0.000877892 0)
(1.0054 0.00168367 0)
(1.00585 0.00240277 0)
(1.00704 0.00257138 0)
(1.00809 0.00307387 0)
(1.0088 0.00408512 0)
(1.00969 0.00504253 0)
(1.01071 0.00584968 0)
(1.01145 0.00671394 0)
(1.01151 0.00766941 0)
(0.999864 0.00108675 0)
(1.00133 -0.000609334 0)
(1.00076 -0.000256763 0)
(1.00114 -2.25211e-05 0)
(1.00265 -0.00185603 0)
(1.00249 -0.000252846 0)
(1.00297 0.000289411 0)
(1.00333 -0.000180869 0)
(1.00316 0.00102465 0)
(1.00417 0.00140868 0)
(1.00536 0.00100133 0)
(1.00551 0.00163551 0)
(1.00591 0.00244113 0)
(1.00707 0.00270576 0)
(1.00823 0.00310876 0)
(1.00902 0.0040135 0)
(1.00991 0.00496431 0)
(1.01093 0.0057545 0)
(1.01171 0.00653297 0)
(1.01179 0.00738712 0)
(0.999856 0.00100398 0)
(1.00126 -0.000578868 0)
(1.00078 -0.000294342 0)
(1.00105 8.25906e-05 0)
(1.00263 -0.00168714 0)
(1.00262 -0.000283854 0)
(1.00297 0.000450158 0)
(1.00337 -5.80068e-05 0)
(1.00327 0.000975911 0)
(1.00415 0.00153632 0)
(1.00535 0.00115343 0)
(1.00562 0.00161179 0)
(1.006 0.00243624 0)
(1.00711 0.00280984 0)
(1.00835 0.00315928 0)
(1.00923 0.00394622 0)
(1.01013 0.00485954 0)
(1.01114 0.00563476 0)
(1.01195 0.00634642 0)
(1.01206 0.00710543 0)
(0.99985 0.000924764 0)
(1.00119 -0.000548771 0)
(1.00081 -0.000339421 0)
(1.00097 0.000197948 0)
(1.00261 -0.00148971 0)
(1.00275 -0.000304831 0)
(1.00298 0.000612444 0)
(1.0034 9.5512e-05 0)
(1.00339 0.000924601 0)
(1.00415 0.00162881 0)
(1.00532 0.00132898 0)
(1.00572 0.00162356 0)
(1.00611 0.00240772 0)
(1.00717 0.00287222 0)
(1.00845 0.00321118 0)
(1.00943 0.00388805 0)
(1.01035 0.00473756 0)
(1.01134 0.0054899 0)
(1.01217 0.00614794 0)
(1.0123 0.006822 0)
(0.999847 0.000850166 0)
(1.00113 -0.00051803 0)
(1.00085 -0.000389202 0)
(1.00091 0.000320615 0)
(1.00259 -0.00126007 0)
(1.0029 -0.000314389 0)
(1.00301 0.000764759 0)
(1.00341 0.000287571 0)
(1.00351 0.000884788 0)
(1.00418 0.00167552 0)
(1.0053 0.00151138 0)
(1.0058 0.00167134 0)
(1.00623 0.00237275 0)
(1.00724 0.00289565 0)
(1.00855 0.00325007 0)
(1.00961 0.00383688 0)
(1.01057 0.00460677 0)
(1.01155 0.00532354 0)
(1.01238 0.00593463 0)
(1.01252 0.00653516 0)
(0.999846 0.000778799 0)
(1.00106 -0.000476965 0)
(1.00091 -0.00044077 0)
(1.00087 0.000441566 0)
(1.00256 -0.00100537 0)
(1.00305 -0.000310138 0)
(1.00307 0.000894831 0)
(1.00342 0.000516594 0)
(1.00362 0.000877927 0)
(1.00423 0.00168111 0)
(1.00528 0.00168128 0)
(1.00586 0.00175658 0)
(1.00634 0.00234676 0)
(1.00733 0.00289099 0)
(1.00865 0.00326699 0)
(1.00978 0.00378534 0)
(1.01078 0.00446983 0)
(1.01175 0.00513721 0)
(1.01257 0.0057018 0)
(1.01273 0.00623789 0)
(0.999848 0.000707897 0)
(1.001 -0.00041833 0)
(1.00098 -0.000489016 0)
(1.00085 0.000559628 0)
(1.00252 -0.000725818 0)
(1.0032 -0.000293737 0)
(1.00315 0.000990448 0)
(1.00341 0.00077061 0)
(1.00372 0.000919183 0)
(1.00431 0.00165637 0)
(1.00527 0.00181675 0)
(1.00591 0.00187051 0)
(1.00646 0.00234221 0)
(1.00742 0.0028696 0)
(1.00875 0.00326045 0)
(1.00993 0.0037282 0)
(1.01097 0.00432982 0)
(1.01195 0.00493692 0)
(1.01276 0.00545153 0)
(1.01292 0.00592802 0)
(0.999853 0.000637818 0)
(1.00094 -0.000341407 0)
(1.00105 -0.000526902 0)
(1.00086 0.000665973 0)
(1.00248 -0.000424555 0)
(1.00334 -0.000257408 0)
(1.00325 0.00104838 0)
(1.00341 0.00103065 0)
(1.00379 0.00101625 0)
(1.0044 0.00162233 0)
(1.00529 0.00190423 0)
(1.00595 0.0019905 0)
(1.00656 0.0023597 0)
(1.00753 0.00283768 0)
(1.00885 0.00322791 0)
(1.01007 0.00365754 0)
(1.01115 0.00418549 0)
(1.01213 0.00472817 0)
(1.01293 0.00518972 0)
(1.01309 0.00560831 0)
(0.999861 0.000573549 0)
(1.00088 -0.000253843 0)
(1.00113 -0.000544169 0)
(1.00089 0.000756509 0)
(1.00243 -0.000110894 0)
(1.00348 -0.000189522 0)
(1.00339 0.00107329 0)
(1.00342 0.00127812 0)
(1.00384 0.0011654 0)
(1.00449 0.00160592 0)
(1.00533 0.00194886 0)
(1.00599 0.00209649 0)
(1.00664 0.00239625 0)
(1.00763 0.00280545 0)
(1.00895 0.00317305 0)
(1.0102 0.00356827 0)
(1.01132 0.00403352 0)
(1.01229 0.00451363 0)
(1.01308 0.00492161 0)
(1.01324 0.00528283 0)
(0.999872 0.000510583 0)
(1.00082 -0.000148762 0)
(1.00122 -0.000539628 0)
(1.00095 0.000831313 0)
(1.00238 0.000210718 0)
(1.00359 -8.92258e-05 0)
(1.00355 0.00106392 0)
(1.00345 0.0014981 0)
(1.00387 0.00135928 0)
(1.00457 0.00162571 0)
(1.00539 0.00196546 0)
(1.00603 0.00217416 0)
(1.00672 0.00243994 0)
(1.00772 0.00277914 0)
(1.00905 0.00310198 0)
(1.01032 0.0034576 0)
(1.01147 0.00386868 0)
(1.01244 0.00429169 0)
(1.01322 0.00464865 0)
(1.01337 0.00495417 0)
(0.999884 0.000448069 0)
(1.00076 -1.77019e-05 0)
(1.00131 -0.000512611 0)
(1.00103 0.000878175 0)
(1.00233 0.00053467 0)
(1.00368 5.06083e-05 0)
(1.00373 0.00103135 0)
(1.0035 0.00167499 0)
(1.00389 0.00158616 0)
(1.00463 0.00169005 0)
(1.00545 0.00197194 0)
(1.00609 0.00221923 0)
(1.00679 0.0024736 0)
(1.00779 0.00275602 0)
(1.00913 0.00301959 0)
(1.01044 0.00332555 0)
(1.0116 0.00368571 0)
(1.01258 0.0040576 0)
(1.01333 0.00436836 0)
(1.01347 0.00462206 0)
(0.999899 0.000388358 0)
(1.0007 0.0001332 0)
(1.00139 -0.00045633 0)
(1.00114 0.000895572 0)
(1.00228 0.000846381 0)
(1.00374 0.000243986 0)
(1.00391 0.00100276 0)
(1.00359 0.00179927 0)
(1.00389 0.00182452 0)
(1.00466 0.00180306 0)
(1.00551 0.0019894 0)
(1.00615 0.00224289 0)
(1.00685 0.00249233 0)
(1.00785 0.00273288 0)
(1.0092 0.00293355 0)
(1.01053 0.0031788 0)
(1.01172 0.00348349 0)
(1.0127 0.00380635 0)
(1.01343 0.00407522 0)
(1.01356 0.00428216 0)
(0.999915 0.000332773 0)
(1.00063 0.000284804 0)
(1.00145 -0.000361581 0)
(1.00127 0.000897946 0)
(1.00225 0.00113502 0)
(1.00376 0.000492339 0)
(1.00409 0.00100222 0)
(1.00371 0.00187432 0)
(1.00389 0.00205062 0)
(1.00467 0.00196218 0)
(1.00556 0.00203359 0)
(1.00621 0.00225658 0)
(1.00691 0.00249638 0)
(1.0079 0.00270356 0)
(1.00924 0.00284636 0)
(1.0106 0.00302217 0)
(1.01182 0.00326128 0)
(1.0128 0.00353143 0)
(1.01351 0.00376041 0)
(1.01361 0.00392608 0)
(0.999931 0.000289305 0)
(1.00057 0.000419591 0)
(1.0015 -0.000223966 0)
(1.00141 0.000890353 0)
(1.00223 0.00139282 0)
(1.00375 0.000786442 0)
(1.00424 0.00105147 0)
(1.00385 0.00191343 0)
(1.00391 0.00224906 0)
(1.00465 0.00215378 0)
(1.00558 0.00211389 0)
(1.00627 0.00226772 0)
(1.00696 0.00248764 0)
(1.00792 0.00266315 0)
(1.00926 0.00275905 0)
(1.01064 0.00285969 0)
(1.01189 0.00302544 0)
(1.01288 0.00323315 0)
(1.01357 0.00342016 0)
(1.01365 0.00354889 0)
(0.999948 0.000253771 0)
(1.00051 0.000548716 0)
(1.00152 -5.25096e-05 0)
(1.00155 0.000880767 0)
(1.00223 0.00160858 0)
(1.00371 0.00111373 0)
(1.00437 0.00116277 0)
(1.00401 0.00193528 0)
(1.00395 0.00240949 0)
(1.00461 0.00235765 0)
(1.00556 0.00223294 0)
(1.0063 0.00228895 0)
(1.007 0.00247055 0)
(1.00794 0.00261123 0)
(1.00925 0.00266863 0)
(1.01065 0.00269386 0)
(1.01193 0.00278201 0)
(1.01293 0.0029153 0)
(1.01361 0.00305222 0)
(1.01365 0.00314432 0)
(0.999963 0.00022552 0)
(1.00045 0.000670599 0)
(1.00152 0.000140437 0)
(1.0017 0.000893477 0)
(1.00226 0.00177991 0)
(1.00365 0.00146187 0)
(1.00445 0.00133607 0)
(1.00417 0.00197072 0)
(1.00401 0.00252766 0)
(1.00456 0.0025575 0)
(1.00551 0.00238095 0)
(1.0063 0.00233862 0)
(1.00702 0.00245064 0)
(1.00793 0.00255421 0)
(1.00921 0.00256818 0)
(1.0106 0.00252942 0)
(1.01191 0.00253203 0)
(1.01294 0.00258677 0)
(1.01361 0.00266055 0)
(1.01363 0.00271149 0)
(0.999978 0.000211306 0)
(1.0004 0.000772877 0)
(1.0015 0.000358481 0)
(1.00183 0.000942409 0)
(1.00231 0.00191493 0)
(1.00358 0.00180541 0)
(1.00448 0.00157176 0)
(1.00431 0.00204187 0)
(1.00408 0.00262261 0)
(1.00451 0.00274223 0)
(1.00542 0.00254998 0)
(1.00625 0.00241941 0)
(1.007 0.00244068 0)
(1.00789 0.00249238 0)
(1.00913 0.00245803 0)
(1.01051 0.00236127 0)
(1.01184 0.00227861 0)
(1.01289 0.00225019 0)
(1.01356 0.0022543 0)
(1.01358 0.00225456 0)
(0.99999 0.00020993 0)
(1.00036 0.000858155 0)
(1.00147 0.000598217 0)
(1.00195 0.00103236 0)
(1.00238 0.0020296 0)
(1.00351 0.00212403 0)
(1.00446 0.00186547 0)
(1.00442 0.00216447 0)
(1.00416 0.00271777 0)
(1.00446 0.00291097 0)
(1.00531 0.00273311 0)
(1.00616 0.00252665 0)
(1.00694 0.00245158 0)
(1.00782 0.00242883 0)
(1.00902 0.00234369 0)
(1.01037 0.0021846 0)
(1.01171 0.00202462 0)
(1.01278 0.00190835 0)
(1.01347 0.00183882 0)
(1.01348 0.00178061 0)
(1 0.000219837 0)
(1.00032 0.000933274 0)
(1.00142 0.000843744 0)
(1.00204 0.00116613 0)
(1.00247 0.00213682 0)
(1.00345 0.00241616 0)
(1.00441 0.00219494 0)
(1.00448 0.00235168 0)
(1.00423 0.00283264 0)
(1.00441 0.00307249 0)
(1.00516 0.00292332 0)
(1.00601 0.00266132 0)
(1.00683 0.00248778 0)
(1.0077 0.00237592 0)
(1.00885 0.00222679 0)
(1.01017 0.00200262 0)
(1.01151 0.00176452 0)
(1.0126 0.00156103 0)
(1.0133 0.00140964 0)
(1.01331 0.00128787 0)
(1.00001 0.000242583 0)
(1.0003 0.000994444 0)
(1.00136 0.00109163 0)
(1.0021 0.00134365 0)
(1.00255 0.00225235 0)
(1.0034 0.00268196 0)
(1.00433 0.0025407 0)
(1.0045 0.00259549 0)
(1.00428 0.00298271 0)
(1.00435 0.00323503 0)
(1.005 0.00311827 0)
(1.00582 0.00282017 0)
(1.00665 0.0025536 0)
(1.00752 0.00234326 0)
(1.00863 0.00211234 0)
(1.00991 0.00181421 0)
(1.01123 0.00149375 0)
(1.01233 0.00119783 0)
(1.01306 0.000958355 0)
(1.01308 0.000762712 0)
(1.00001 0.000276629 0)
(1.00028 0.0010531 0)
(1.0013 0.00132818 0)
(1.00214 0.00156551 0)
(1.00264 0.00238553 0)
(1.00337 0.00292992 0)
(1.00423 0.00288996 0)
(1.00448 0.00288632 0)
(1.0043 0.00317259 0)
(1.00429 0.00340893 0)
(1.00481 0.00332254 0)
(1.00557 0.00299969 0)
(1.0064 0.00265374 0)
(1.00726 0.00233525 0)
(1.00833 0.00200781 0)
(1.00956 0.00161959 0)
(1.01086 0.00120743 0)
(1.01197 0.000809532 0)
(1.01272 0.0004742 0)
(1.01277 0.000190242 0)
(1.00002 0.000315221 0)
(1.00027 0.00112049 0)
(1.00124 0.00155364 0)
(1.00215 0.00181704 0)
(1.00271 0.00255304 0)
(1.00335 0.00316297 0)
(1.00412 0.0032432 0)
(1.00441 0.00321287 0)
(1.00428 0.00341154 0)
(1.0042 0.00360912 0)
(1.00459 0.00354703 0)
(1.00527 0.00321181 0)
(1.00607 0.00279508 0)
(1.00691 0.00236654 0)
(1.00794 0.0019234 0)
(1.00911 0.00142927 0)
(1.01038 0.000902904 0)
(1.01149 0.000391631 0)
(1.01226 -6.40953e-05 0)
(1.01234 -0.000455136 0)
(1.00002 0.000364272 0)
(1.00026 0.00119261 0)
(1.00119 0.00177272 0)
(1.00214 0.00208716 0)
(1.00276 0.00275483 0)