/*--------------------------------*- C++ -*----------------------------------*\
| =========                 |                                                 |
| \\      /  F ield         | OpenFOAM: The Open Source CFD Toolbox           |
|  \\    /   O peration     | Version:  v2012                                 |
|   \\  /    A nd           | Website:  www.openfoam.com                      |
|    \\/     M anipulation  |                                                 |
\*---------------------------------------------------------------------------*/
FoamFile
{
    version     2.0;
    format      ascii;
    class       volScalarField;
    location    "4.3";
    object      p;
}
// * * * * * * * * * * * * * * * * * * * * * * * * * * * * * * * * * * * * * //

dimensions      [0 2 -2 0 0 0 0];


internalField   nonuniform List<scalar> 
17600
(
2.31358e-11
-0.00169894
-0.00268561
-0.00196283
-0.00278001
-0.0030088
-0.00351854
-0.00423151
-0.00470757
-0.00487119
-0.00524265
-0.00563127
-0.00597301
-0.00584839
-0.00576937
-0.00514033
-0.00443067
-0.00278848
-0.0007311
0.00319538
1.53605e-06
-0.00170389
-0.00268557
-0.00196411
-0.00277716
-0.00301143
-0.0035171
-0.00423427
-0.00470595
-0.00487382
-0.00524018
-0.00563484
-0.00596768
-0.00585462
-0.00576041
-0.00515366
-0.00441688
-0.00283279
-0.000717281
0.00287618
3.03408e-06
-0.00171045
-0.00268473
-0.00196626
-0.00277538
-0.00301514
-0.00351488
-0.00423808
-0.00470366
-0.00487755
-0.00523693
-0.00564008
-0.00596213
-0.00586369
-0.00575158
-0.00517214
-0.00440319
-0.00288832
-0.000720542
0.00244398
3.40048e-06
-0.00171492
-0.00268305
-0.0019689
-0.00277397
-0.00301896
-0.00351263
-0.00424221
-0.00470178
-0.0048812
-0.00523399
-0.00564564
-0.00595706
-0.00587357
-0.00574348
-0.0051922
-0.00439128
-0.00294524
-0.000751652
0.00202983
2.81823e-06
-0.00171812
-0.00268068
-0.00197224
-0.00277283
-0.00302307
-0.00351037
-0.00424681
-0.00470014
-0.00488484
-0.00523101
-0.00565157
-0.00595178
-0.00588442
-0.00573497
-0.00521406
-0.00438076
-0.00300568
-0.000812439
0.00163711
1.55667e-06
-0.00172007
-0.00267786
-0.00197649
-0.00277194
-0.00302757
-0.00350799
-0.00425193
-0.00469838
-0.00488852
-0.00522761
-0.00565796
-0.00594604
-0.0058963
-0.00572609
-0.00523786
-0.00437321
-0.00307042
-0.000902781
0.00126766
-2.07109e-07
-0.00172095
-0.00267485
-0.00198162
-0.00277117
-0.00303242
-0.00350545
-0.00425748
-0.00469632
-0.00489225
-0.00522372
-0.00566484
-0.00594
-0.00590913
-0.00571757
-0.00526314
-0.00437075
-0.00313886
-0.00102152
0.000917594
-2.28777e-06
-0.001721
-0.00267183
-0.00198747
-0.00277035
-0.0030376
-0.00350268
-0.00426341
-0.00469394
-0.00489605
-0.00521941
-0.00567223
-0.00593393
-0.00592278
-0.00571017
-0.00528912
-0.00437561
-0.00320986
-0.00116764
0.000580755
-4.48478e-06
-0.0017205
-0.00266888
-0.00199387
-0.00276936
-0.00304309
-0.00349968
-0.00426973
-0.00469127
-0.00489994
-0.00521476
-0.00568013
-0.00592806
-0.00593699
-0.00570476
-0.00531494
-0.00438982
-0.00328288
-0.00133964
0.000250992
-6.6377e-06
-0.00171971
-0.00266593
-0.00200064
-0.00276815
-0.0030489
-0.00349646
-0.00427645
-0.00468836
-0.00490391
-0.00520987
-0.00568845
-0.0059227
-0.00595135
-0.00570224
-0.00533985
-0.00441499
-0.00335808
-0.00153481
-7.70078e-05
-8.65185e-06
-0.00171881
-0.00266294
-0.0020077
-0.0027667
-0.00305503
-0.00349304
-0.00428356
-0.00468526
-0.00490791
-0.00520489
-0.00569701
-0.00591828
-0.00596535
-0.00570351
-0.00536339
-0.00445235
-0.00343711
-0.00174924
-0.000407354
-1.04877e-05
-0.00171792
-0.00265982
-0.00201496
-0.00276503
-0.00306148
-0.00348946
-0.00429102
-0.00468202
-0.00491185
-0.0052
-0.00570553
-0.00591533
-0.00597842
-0.0057094
-0.00538558
-0.00450238
-0.00352228
-0.00197851
-0.000742686
-1.21347e-05
-0.00171711
-0.00265655
-0.00202241
-0.00276313
-0.00306824
-0.00348575
-0.00429876
-0.00467873
-0.00491558
-0.00519548
-0.00571365
-0.00591442
-0.00599006
-0.00572049
-0.00540699
-0.00456467
-0.00361654
-0.00221841
-0.00108412
-1.35925e-05
-0.0017164
-0.00265311
-0.00203001
-0.00276102
-0.0030753
-0.00348196
-0.0043067
-0.00467552
-0.0049189
-0.00519163
-0.005721
-0.00591608
-0.006
-0.00573711
-0.00542882
-0.00463801
-0.00372278
-0.00246576
-0.00143154
-1.48651e-05
-0.00171581
-0.00264947
-0.00203773
-0.00275873
-0.00308262
-0.00347815
-0.00431471
-0.00467257
-0.00492153
-0.00518882
-0.00572719
-0.00592076
-0.00600822
-0.00575946
-0.00545284
-0.0047205
-0.00384315
-0.00271865
-0.00178384
-1.59623e-05
-0.00171531
-0.00264567
-0.00204552
-0.00275628
-0.00309016
-0.00347442
-0.00432262
-0.00467009
-0.00492319
-0.00518739
-0.00573193
-0.00592875
-0.00601505
-0.00578762
-0.00548096
-0.00481026
-0.00397908
-0.00297625
-0.00213913
-1.69024e-05
-0.00171485
-0.00264171
-0.00205331
-0.00275373
-0.00309784
-0.0034709
-0.0043302
-0.00466836
-0.00492355
-0.00518764
-0.00573513
-0.00594006
-0.00602134
-0.0058208
-0.0055162
-0.0049066
-0.00413132
-0.0032386
-0.00249523
-1.77145e-05
-0.00171438
-0.00263762
-0.00206101
-0.00275114
-0.00310557
-0.00346776
-0.00433721
-0.00466764
-0.00492241
-0.00518974
-0.00573698
-0.00595436
-0.00602815
-0.00585759
-0.00555988
-0.00500994
-0.00429948
-0.00350656
-0.00285033
-1.84387e-05
-0.00171379
-0.00263346
-0.00206853
-0.00274861
-0.00311321
-0.00346522
-0.00434342
-0.00466813
-0.00491969
-0.00519371
-0.00573774
-0.00597187
-0.0060368
-0.00589715
-0.00561336
-0.00512096
-0.00448218
-0.00378132
-0.00320328
-1.9131e-05
-0.00171296
-0.00262929
-0.00207574
-0.00274626
-0.0031206
-0.00346345
-0.0043486
-0.00467002
-0.00491534
-0.00519947
-0.0057376
-0.00599008
-0.00604885
-0.00593933
-0.0056778
-0.00524069
-0.00467777
-0.00406378
-0.00355386
-1.98678e-05
-0.00171172
-0.00262521
-0.00208248
-0.00274424
-0.0031276
-0.00346265
-0.00435253
-0.00467342
-0.00490937
-0.00520757
-0.0057373
-0.00600944
-0.00606538
-0.00598428
-0.00575384
-0.00537075
-0.00488491
-0.00435413
-0.00390263
-2.07432e-05
-0.00170988
-0.00262134
-0.00208857
-0.00274268
-0.00313411
-0.00346298
-0.00435508
-0.00467826
-0.004902
-0.00521508
-0.00573783
-0.00602965
-0.00608693
-0.00603326
-0.00584182
-0.00551309
-0.00510314
-0.00465188
-0.00425067
-2.18782e-05
-0.00170716
-0.0026178
-0.00209384
-0.00274172
-0.00314001
-0.00346456
-0.00435625
-0.0046842
-0.00489382
-0.00522225
-0.00573978
-0.00605045
-0.00611346
-0.00608753
-0.00594208
-0.00566978
-0.00533293
-0.00495655
-0.00459935
-2.34572e-05
-0.00170323
-0.00261477
-0.00209812
-0.00274146
-0.0031453
-0.00346736
-0.00435626
-0.00469067
-0.00488569
-0.00522856
-0.00574341
-0.00607189
-0.00614446
-0.00614755
-0.00605498
-0.00584295
-0.00557564
-0.00526863
-0.0049505
-2.56971e-05
-0.00169769
-0.00261239
-0.00210125
-0.00274195
-0.00315014
-0.00347109
-0.00435558
-0.00469672
-0.00487851
-0.00523365
-0.00574853
-0.00609439
-0.0061803
-0.0062131
-0.00617983
-0.00603421
-0.00583417
-0.00559257
-0.00530736
-2.88228e-05
-0.00169073
-0.00261073
-0.00210319
-0.00274306
-0.00315484
-0.00347527
-0.00435489
-0.00470146
-0.00487283
-0.00523764
-0.00575416
-0.00611783
-0.00622181
-0.00628297
-0.00631043
-0.00623677
-0.00611134
-0.00594387
-0.00567728
-3.31463e-05
-0.0016805
-0.00260986
-0.00210394
-0.00274465
-0.00315987
-0.00347911
-0.00435502
-0.00470452
-0.00486864
-0.00524117
-0.00575993
-0.00614143
-0.00626719
-0.00635869
-0.0064449
-0.00644821
-0.00639569
-0.00629804
-0.00609329
-3.90013e-05
-0.00166694
-0.00260976
-0.0021036
-0.00274635
-0.00316596
-0.00348168
-0.00435661
-0.00470529
-0.00486501
-0.00524511
-0.00576628
-0.00616604
-0.00631238
-0.00644009
-0.00659835
-0.00667874
-0.00669245
-0.00666084
-0.00651001
-4.67329e-05
-0.00164964
-0.00261024
-0.00210253
-0.00274748
-0.00317399
-0.00348216
-0.00435986
-0.00470523
-0.00486058
-0.00525097
-0.00577268
-0.00619549
-0.00637914
-0.00653708
-0.00675889
-0.00691952
-0.00700189
-0.00703083
-0.00692035
-5.67669e-05
-0.00162805
-0.00261098
-0.00210139
-0.00274705
-0.00318488
-0.00348036
-0.00436432
-0.00470616
-0.00485508
-0.00526003
-0.00578444
-0.00623285
-0.00645699
-0.00664294
-0.00692093
-0.00716574
-0.00732287
-0.00740663
-0.00732596
-6.94961e-05
-0.00160171
-0.00261125
-0.00210102
-0.00274404
-0.00319917
-0.00347668
-0.00436901
-0.00471005
-0.00484888
-0.00527406
-0.00580556
-0.00627378
-0.00654122
-0.00675939
-0.00708539
-0.00741423
-0.00765266
-0.00778908
-0.00772756
-8.52293e-05
-0.00157047
-0.00261002
-0.00210219
-0.00273784
-0.00321727
-0.0034724
-0.00437338
-0.00471841
-0.0048442
-0.00529453
-0.00583555
-0.00631417
-0.00662924
-0.00688802
-0.00725478
-0.0076618
-0.00798615
-0.008176
-0.00812626
-0.000104181
-0.00153443
-0.00260593
-0.00210555
-0.00272804
-0.00323928
-0.00346936
-0.00437726
-0.00473444
-0.00484315
-0.00531814
-0.00587164
-0.00635353
-0.00671894
-0.00702918
-0.00743322
-0.00790711
-0.00831751
-0.0085637
-0.00852296
-0.00012647
-0.001494
-0.00259739
-0.00211158
-0.00271463
-0.00326483
-0.00346971
-0.00438188
-0.00476107
-0.00484627
-0.00533856
-0.0059128
-0.00639566
-0.00680784
-0.00718022
-0.0076238
-0.00815126
-0.00864153
-0.00894803
-0.0089182
-0.000152116
-0.00144992
-0.00258288
-0.00212018
-0.0026982
-0.00329379
-0.00347596
-0.00438896
-0.00479826
-0.00484933
-0.00535311
-0.00595987
-0.00644359
-0.0068936
-0.00733602
-0.00782743
-0.00839801
-0.00895599
-0.00932471
-0.00931113
-0.000180902
-0.00140322
-0.00256139
-0.00213056
-0.00267965
-0.00332673
-0.00349177
-0.00439832
-0.00484102
-0.00485485
-0.00536142
-0.00601219
-0.00650024
-0.00697646
-0.00749194
-0.00804257
-0.00865158
-0.00926221
-0.00969002
-0.00969868
-0.000212443
-0.00135505
-0.00253249
-0.00214174
-0.00266036
-0.00336466
-0.0035183
-0.00440574
-0.00488709
-0.00486579
-0.00536331
-0.00606713
-0.00656814
-0.00705889
-0.00764438
-0.00826573
-0.0089146
-0.00956369
-0.0100416
-0.0100762
-0.000246396
-0.00130656
-0.00249634
-0.00215331
-0.00264135
-0.00340722
-0.0035552
-0.00441028
-0.0049357
-0.00488524
-0.00535941
-0.00612149
-0.00664876
-0.00714462
-0.00779039
-0.00849157
-0.00918727
-0.00986429
-0.0103788
-0.010439
-0.000282153
-0.00125865
-0.00245391
-0.00216555
-0.00262318
-0.00345259
-0.00360293
-0.00441512
-0.00498477
-0.00491529
-0.00535188
-0.0061714
-0.00674188
-0.00723831
-0.00792876
-0.0087137
-0.00946714
-0.010167
-0.0107035
-0.0107839
-0.000318734
-0.00121215
-0.00240693
-0.00217873
-0.00260509
-0.00349866
-0.00366187
-0.00441627
-0.00503175
-0.00495712
-0.00534377
-0.00621288
-0.0068449
-0.0073446
-0.00806125
-0.0089263
-0.00974889
-0.010473
-0.0110185
-0.0111098
-0.000355322
-0.00116782
-0.00235699
-0.002193
-0.0025874
-0.00354335
-0.00373177
-0.00441824
-0.00507305
-0.00501065
-0.00533944
-0.00624361
-0.00695347
-0.00746665
-0.00819257
-0.00912605
-0.0100254
-0.0107805
-0.0113271
-0.011418
-0.000391371
-0.00112588
-0.0023051
-0.00220881
-0.00256827
-0.00358508
-0.00381177
-0.00442282
-0.00510642
-0.00507443
-0.00534376
-0.00626368
-0.00706147
-0.00760414
-0.00832845
-0.00931279
-0.0102899
-0.0110859
-0.0116315
-0.0117112
-0.000426396
-0.0010861
-0.00225215
-0.00221967
-0.00255704
-0.00362236
-0.00389982
-0.00443172
-0.00513017
-0.00514581
-0.00536082
-0.00627526
-0.00716207
-0.00775299
-0.00847322
-0.00948847
-0.010538
-0.0113844
-0.0119324
-0.011993
-0.000459693
-0.00104807
-0.00219898
-0.00224929
-0.00255455
-0.00365191
-0.00399138
-0.00444649
-0.00514388
-0.00522138
-0.0053935
-0.00628211
-0.00725021
-0.00790752
-0.00862893
-0.00965719
-0.0107678
-0.0116708
-0.0122282
-0.0122659
-0.000490283
-0.00101041
-0.00214751
-0.00229153
-0.00256432
-0.00366995
-0.00408034
-0.00446822
-0.00514783
-0.00529671
-0.00544307
-0.00628941
-0.00732341
-0.00806136
-0.0087949
-0.00982312
-0.0109792
-0.0119398
-0.0125151
-0.0125304
-0.000516819
-0.000970995
-0.00210202
-0.00235557
-0.00258647
-0.00367574
-0.00416378
-0.00449792
-0.00514329
-0.00536583
-0.00550777
-0.00630237
-0.00738173
-0.00820774
-0.00896773
-0.00998923
-0.0111739
-0.0121879
-0.0127885
-0.0127856
-0.000537944
-0.000931354
-0.00206376
-0.00242801
-0.00262154
-0.00366109
-0.00424133
-0.00453878
-0.00513441
-0.005424
-0.0055831
-0.00632493
-0.00742777
-0.00834088
-0.00914184
-0.0101567
-0.0113547
-0.0124135
-0.0130441
-0.0130295
-0.000564306
-0.00090104
-0.00201722
-0.00249752
-0.00267282
-0.0036575
-0.0043124
-0.0045929
-0.00512614
-0.00546879
-0.00566342
-0.0063594
-0.0074661
-0.00845755
-0.00931074
-0.0103248
-0.0115251
-0.0126174
-0.0132794
-0.0132598
-0.000602976
-0.000885345
-0.00195786
-0.00255988
-0.00273847
-0.00365348
-0.00437438
-0.00465848
-0.00512273
-0.00549863
-0.00574214
-0.00640591
-0.00750131
-0.00855597
-0.00946748
-0.0104892
-0.0116861
-0.0128009
-0.0134924
-0.0134737
-0.000614744
-0.000868966
-0.00193255
-0.00262903
-0.0028144
-0.00365002
-0.004425
-0.00473278
-0.0051284
-0.00551471
-0.00581137
-0.00646077
-0.00753668
-0.00863631
-0.00960626
-0.0106436
-0.0118359
-0.0129646
-0.0136819
-0.0136686
-0.000633108
-0.000865685
-0.00190249
-0.00269458
-0.00290226
-0.00365085
-0.00446257
-0.00481048
-0.00514566
-0.00552095
-0.00586647
-0.00651768
-0.00757338
-0.00870211
-0.00972452
-0.0107831
-0.0119726
-0.0131093
-0.0138484
-0.0138438
-0.000667555
-0.000872726
-0.00186771
-0.0027525
-0.00300365
-0.00366253
-0.00448836
-0.0048883
-0.00517744
-0.00552313
-0.00590525
-0.00656906
-0.00760898
-0.00875549
-0.00982109
-0.010903
-0.0120919
-0.0132332
-0.0139911
-0.0139983
-0.000706812
-0.000889451
-0.0018348
-0.00280095
-0.00311643
-0.00368873
-0.00450393
-0.004961
-0.0052225
-0.00552603
-0.00592622
-0.00660691
-0.00763851
-0.00879699
-0.0098975
-0.0110011
-0.0121894
-0.0133325
-0.0141068
-0.014129
-0.000745864
-0.000917114
-0.00181647
-0.00284832
-0.00323704
-0.00373068
-0.00450943
-0.00502052
-0.00527606
-0.00553404
-0.00593102
-0.00662519
-0.00765567
-0.00882503
-0.00995462
-0.0110762
-0.0122619
-0.0134031
-0.0141906
-0.0142312
-0.000787106
-0.000956979
-0.00181484
-0.00289223
-0.00336163
-0.0037899
-0.00451004
-0.00506349
-0.00533314
-0.00555063
-0.00592395
-0.00661941
-0.00765213
-0.00883388
-0.00998916
-0.0111254
-0.0123061
-0.0134407
-0.0142383
-0.0142997
-0.000838845
-0.00101215
-0.00182469
-0.00293153
-0.00348794
-0.00386823
-0.00451191
-0.00508877
-0.00538639
-0.00557487
-0.00591004
-0.00658908
-0.00762095
-0.00881629
-0.00999559
-0.0111452
-0.0123192
-0.0134425
-0.0142467
-0.0143292
-0.000899659
-0.00107913
-0.00184995
-0.00296905
-0.00361285
-0.00396524
-0.0045214
-0.00509729
-0.00542761
-0.00560195
-0.0058928
-0.0065367
-0.00755724
-0.00876399
-0.00996655
-0.0111301
-0.0122978
-0.0134075
-0.0142129
-0.0143157
-0.000972858
-0.00115618
-0.0018926
-0.00300835
-0.00373396
-0.00407811
-0.00454321
-0.00509227
-0.00545062
-0.00562484
-0.00587295
-0.00646559
-0.00745807
-0.0086684
-0.00989323
-0.0110728
-0.0122363
-0.0133328
-0.0141357
-0.0142563
-0.00105941
-0.0012595
-0.00194996
-0.0030527
-0.00384953
-0.00420279
-0.00458058
-0.00507951
-0.00545397
-0.00563701
-0.00584822
-0.00637806
-0.00732182
-0.00852111
-0.00976424
-0.0109627
-0.0121268
-0.0132115
-0.0140095
-0.0141452
-0.00115498
-0.00136231
-0.00204406
-0.00310972
-0.00395917
-0.00433601
-0.00463625
-0.00506503
-0.00543691
-0.00563013
-0.00581111
-0.00627153
-0.00714701
-0.00831676
-0.00956991
-0.0107886
-0.0119582
-0.0130345
-0.0138279
-0.0139785
-0.00126837
-0.00149256
-0.00215623
-0.00318074
-0.00406412
-0.00447389
-0.00471106
-0.0050545
-0.00540056
-0.00559816
-0.00575399
-0.00614248
-0.00693307
-0.00805181
-0.00929954
-0.0105348
-0.0117142
-0.0127884
-0.0135803
-0.0137435
-0.00140724
-0.00163776
-0.00228961
-0.00326826
-0.00416735
-0.00461372
-0.00480481
-0.00505487
-0.00534964
-0.0055383
-0.0056697
-0.0059849
-0.00667595
-0.007719
-0.00893831
-0.0101794
-0.01137
-0.0124452
-0.013238
-0.0134198
-0.00157241
-0.00180984
-0.00244056
-0.00337665
-0.00427371
-0.0047546
-0.00491689
-0.00507345
-0.00529141
-0.0054503
-0.00555113
-0.00579059
-0.00636831
-0.0073076
-0.00846849
-0.00969579
-0.0108929
-0.0119757
-0.0127796
-0.0129903
-0.00176208
-0.00199352
-0.00262296
-0.0035122
-0.00438789
-0.00489744
-0.00504638
-0.00511708
-0.0052397
-0.00534165
-0.00539676
-0.00555254
-0.0060017
-0.00680462
-0.0078658
-0.00904462
-0.0102339
-0.0113322
-0.0121658
-0.012426
-0.00198036
-0.0022027
-0.00282604
-0.00367176
-0.00451138
-0.00504528
-0.00519105
-0.00518613
-0.00521107
-0.00523333
-0.00521678
-0.00526819
-0.00556375
-0.00619296
-0.00710553
-0.00819114
-0.00934722
-0.0104585
-0.0113419
-0.0116861
-0.00225473
-0.00244208
-0.00303869
-0.00381735
-0.004641
-0.00520126
-0.0053486
-0.00527729
-0.00520877
-0.00514858
-0.00503289
-0.00494196
-0.00504019
-0.00543976
-0.00614384
-0.00707103
-0.00814431
-0.00925303
-0.0102126
-0.0107001
-0.00259014
-0.00284491
-0.00326429
-0.00393371
-0.00478147
-0.00535903
-0.00550402
-0.00538287
-0.00523237
-0.00510096
-0.0048929
-0.00460998
-0.00443082
-0.00449655
-0.00487228
-0.00554285
-0.00643281
-0.00748964
-0.00856339
-0.0093096
-0.00288316
-0.0030476
-0.0036116
-0.00430921
-0.00501819
-0.00551536
-0.00564372
-0.0054982
-0.00527888
-0.00509572
-0.00485891
-0.00445153
-0.00388458
-0.00335486
-0.00309637
-0.0032272
-0.00373788
-0.00452458
-0.00546904
-0.00639207
-0.00324237
-0.00340808
-0.00398465
-0.00466379
-0.00526678
-0.00566512
-0.00576358
-0.00562217
-0.00535195
-0.00504936
-0.00484949
-0.00466401
-0.00398466
-0.00283442
-0.0018657
-0.00138145
-0.0012285
-0.00111666
-0.000888275
-0.000619645
-0.00371308
-0.00387039
-0.00436749
-0.00499217
-0.00549262
-0.00579491
-0.00585377
-0.00572824
-0.00551339
-0.00493415
-0.00389375
-0.00280983
-0.00187242
-0.00113625
-0.000533767
5.86158e-05
0.000723635
0.00145374
0.00210981
0.0023322
-0.00424323
-0.00437184
-0.00481527
-0.00533323
-0.00568745
-0.0058625
-0.00588715
-0.00540688
-0.00450985
-0.00361428
-0.00285278
-0.00219568
-0.00156564
-0.000835584
3.52669e-05
0.00101592
0.00203931
0.00299045
0.00367021
0.00374073
-0.00488994
-0.00493292
-0.00526801
-0.00565042
-0.00583926
-0.00557507
-0.00505573
-0.00445715
-0.00386019
-0.00329872
-0.00273548
-0.00207716
-0.00125475
-0.000255595
0.000867198
0.00204693
0.00320635
0.00422002
0.00486702
0.00481867
-0.00571814
-0.00579246
-0.00562864
-0.00543069
-0.00521127
-0.00491464
-0.00456108
-0.00418015
-0.00372784
-0.00317213
-0.00249163
-0.00166092
-0.000675626
0.000437977
0.00164942
0.00290195
0.0041023
0.005108
0.00570515
0.00557204
-0.00642147
-0.0063592
-0.00589266
-0.00533677
-0.00488447
-0.00456275
-0.00428042
-0.00394666
-0.00348751
-0.00287022
-0.00209842
-0.00118309
-0.000133563
0.00103415
0.00228473
0.00355761
0.00475869
0.0057456
0.00630235
0.00610789
-0.00695809
-0.00678603
-0.00617761
-0.00542274
-0.00477453
-0.00431617
-0.00397205
-0.00360871
-0.00312967
-0.00249512
-0.00170089
-0.000755549
0.000325467
0.00152015
0.00279031
0.00407288
0.00527148
0.00624102
0.00676388
0.00652015
-0.00741282
-0.00716336
-0.00644572
-0.00553639
-0.00471451
-0.004105
-0.00366138
-0.00325737
-0.00277674
-0.00214975
-0.0013538
-0.00039664
0.000703501
0.0019176
0.00320135
0.00448856
0.00568091
0.00663227
0.00712517
0.00684153
-0.00780046
-0.00749596
-0.00666617
-0.00563257
-0.00467366
-0.00393619
-0.0034025
-0.00295548
-0.00246679
-0.00184625
-0.00105464
-9.11772e-05
0.00102219
0.00224925
0.00354055
0.0048273
0.00601038
0.00694387
0.00741128
0.00709624
-0.00810831
-0.00775124
-0.00685314
-0.00572208
-0.00465477
-0.00381611
-0.00320495
-0.00271339
-0.00220695
-0.00158583
-0.000798639
0.000163747
0.00128151
0.00251483
0.00380888
0.0050925
0.00626604
0.00718418
0.00763161
0.00729338
-0.00833784
-0.00795081
-0.00699975
-0.0058029
-0.00466208
-0.00375122
-0.00307798
-0.00253999
-0.00200356
-0.0013642
-0.00056756
0.000398076
0.00151456
0.00274435
0.00403437
0.00531091
0.00647385
0.00737865
0.00781084
0.00745591
-0.00848088
-0.0080847
-0.00711002
-0.00588028
-0.00470162
-0.00375176
-0.00304063
-0.00246819
-0.00190425
-0.00124407
-0.000427536
0.000557897
0.00169109
0.00293
0.00421863
0.00548703
0.00663914
0.00753399
0.00795882
0.00759888
0.0072403
0.00227288
-0.00500354
-0.010135
-0.0111953
-0.00991007
-0.00837788
-0.00732439
-0.00673511
-0.00644761
-0.00633845
-0.00633571
-0.00639717
-0.00649504
-0.00661092
-0.00673408
-0.00685716
-0.00697321
-0.0070771
-0.00716802
-0.0072486
-0.00732272
-0.00739392
-0.00746441
-0.00753479
-0.00760508
-0.00767573
-0.0077479
-0.00782256
-0.00790006
-0.00797954
-0.00805985
-0.00814031
-0.0082208
-0.00830102
-0.00838035
-0.00845803
-0.00853372
-0.00860721
-0.00867847
-0.00874774
-0.00881547
-0.0088818
-0.00894653
-0.00900935
-0.00907046
-0.00913052
-0.00919
-0.00924879
-0.00930644
-0.00936279
-0.00941799
-0.00947246
-0.00952629
-0.00957934
-0.00963135
-0.00968252
-0.00973307
-0.00978321
-0.00983276
-0.00988158
-0.00992961
-0.0099771
-0.0100242
-0.010071
-0.0101173
-0.0101628
-0.0102075
-0.0102519
-0.0102959
-0.0103396
-0.0103827
-0.0104252
-0.0104672
-0.0105088
-0.0105499
-0.0105905
-0.0106307
-0.0106705
-0.0107101
-0.0107494
-0.0107885
-0.0108272
-0.010866
-0.0109048
-0.0109437
-0.0109826
-0.0110212
-0.0110599
-0.0110986
-0.0111374
-0.011176
-0.0112145
-0.0112528
-0.0112911
-0.0113292
-0.0113671
-0.0114048
-0.0114426
-0.0114801
-0.0115175
-0.0115545
-0.0115915
-0.0116283
-0.011665
-0.0117015
-0.0117376
-0.0117737
-0.0118094
-0.0118451
-0.0118805
-0.011916
-0.0119512
-0.0119864
-0.0120213
-0.0120563
-0.0120913
-0.0121262
-0.0121611
-0.0121957
-0.0122304
-0.0122648
-0.0122994
-0.0123334
-0.0123676
-0.0124013
-0.0124351
-0.0124686
-0.0125021
-0.0125353
-0.0125682
-0.0126011
-0.0126335
-0.0126663
-0.0126984
-0.0127308
-0.0127624
-0.0127945
-0.0128261
-0.0128577
-0.0128891
-0.0129201
-0.0129512
-0.0129817
-0.0130127
-0.0130427
-0.0130732
-0.0131028
-0.0131331
-0.0131628
-0.0131922
-0.0132216
-0.0132502
-0.01328
-0.0133082
-0.0133373
-0.0133649
-0.0133938
-0.0134218
-0.0134496
-0.0134773
-0.0135041
-0.0135322
-0.013558
-0.0135854
-0.0136108
-0.0136377
-0.0136637
-0.013689
-0.0137153
-0.0137395
-0.0137662
-0.0137896
-0.0138154
-0.0138391
-0.0138636
-0.013888
-0.0139103
-0.0139354
-0.0139567
-0.0139811
-0.0140024
-0.0140245
-0.0140475
-0.0140672
-0.0140913
-0.0141091
-0.0141326
-0.014151
-0.0141708
-0.0141911
-0.0142069
-0.0142274
-0.0142417
-0.0142579
-0.0142747
-0.0142847
-0.0143041
-0.0143109
-0.0143316
0.0065028
0.0020903
-0.00492844
-0.00999798
-0.0111121
-0.00987072
-0.0083532
-0.00730675
-0.00672225
-0.00643775
-0.00633045
-0.00632896
-0.00639133
-0.0064899
-0.00660635
-0.00672999
-0.00685347
-0.00696987
-0.00707408
-0.00716527
-0.00724608
-0.0073204
-0.00739176
-0.0074624
-0.00753292
-0.00760333
-0.00767408
-0.00774634
-0.00782108
-0.00789865
-0.00797821
-0.00805858
-0.00813911
-0.00821966
-0.00829993
-0.00837931
-0.00845703
-0.00853277
-0.0086063
-0.00867759
-0.0087469
-0.00881466
-0.00888103
-0.00894579
-0.00900864
-0.00906977
-0.00912986
-0.00918936
-0.00924817
-0.00930585
-0.00936222
-0.00941744
-0.00947193
-0.00952578
-0.00957885
-0.00963087
-0.00968206
-0.00973263
-0.00978278
-0.00983235
-0.00988118
-0.00992922
-0.00997673
-0.0100238
-0.0100706
-0.0101169
-0.0101624
-0.0102072
-0.0102515
-0.0102956
-0.0103393
-0.0103825
-0.0104249
-0.010467
-0.0105085
-0.0105496
-0.0105902
-0.0106305
-0.0106703
-0.0107099
-0.0107492
-0.0107882
-0.010827
-0.0108658
-0.0109046
-0.0109435
-0.0109824
-0.011021
-0.0110597
-0.0110984
-0.0111372
-0.0111758
-0.0112143
-0.0112526
-0.011291
-0.011329
-0.0113669
-0.0114047
-0.0114424
-0.01148
-0.0115173
-0.0115544
-0.0115913
-0.0116282
-0.0116649
-0.0117014
-0.0117375
-0.0117736
-0.0118093
-0.011845
-0.0118804
-0.0119159
-0.0119511
-0.0119863
-0.0120212
-0.0120562
-0.0120912
-0.0121261
-0.012161
-0.0121956
-0.0122303
-0.0122647
-0.0122993
-0.0123333
-0.0123675
-0.0124012
-0.012435
-0.0124685
-0.012502
-0.0125352
-0.0125681
-0.012601
-0.0126334
-0.0126663
-0.0126983
-0.0127307
-0.0127624
-0.0127944
-0.012826
-0.0128577
-0.0128891
-0.01292
-0.0129512
-0.0129816
-0.0130127
-0.0130426
-0.0130732
-0.0131028
-0.013133
-0.0131627
-0.0131922
-0.0132215
-0.0132502
-0.0132799
-0.0133081
-0.0133372
-0.0133648
-0.0133937
-0.0134217
-0.0134495
-0.0134773
-0.0135041
-0.0135321
-0.013558
-0.0135854
-0.0136108
-0.0136376
-0.0136636
-0.013689
-0.0137152
-0.0137394
-0.0137662
-0.0137896
-0.0138154
-0.0138391
-0.0138635
-0.013888
-0.0139103
-0.0139354
-0.0139567
-0.0139811
-0.0140023
-0.0140245
-0.0140475
-0.0140671
-0.0140913
-0.0141091
-0.0141326
-0.0141509
-0.0141708
-0.014191
-0.0142068
-0.0142274
-0.0142417
-0.0142579
-0.0142746
-0.0142847
-0.0143041
-0.0143109
-0.0143315
0.00573054
0.00190732
-0.00476165
-0.0097398
-0.0109613
-0.00981152
-0.00832222
-0.00728301
-0.00670342
-0.00642323
-0.00631919
-0.00631999
-0.00638398
-0.00648372
-0.00660103
-0.00672533
-0.00684933
-0.00696616
-0.00707074
-0.00716225
-0.00724334
-0.00731791
-0.00738948
-0.0074603
-0.00753098
-0.00760152
-0.00767239
-0.00774476
-0.00781959
-0.00789725
-0.00797688
-0.00805732
-0.00813791
-0.00821852
-0.00829885
-0.00837828
-0.00845604
-0.00853183
-0.0086054
-0.00867674
-0.00874608
-0.00881388
-0.00888027
-0.00894506
-0.00900794
-0.0090691
-0.00912921
-0.00918874
-0.00924758
-0.00930527
-0.00936167
-0.00941691
-0.00947141
-0.00952529
-0.00957837
-0.00963041
-0.00968162
-0.00973219
-0.00978237
-0.00983195
-0.00988079
-0.00992885
-0.00997636
-0.0100235
-0.0100703
-0.0101166
-0.0101621
-0.0102069
-0.0102512
-0.0102953
-0.010339
-0.0103822
-0.0104247
-0.0104667
-0.0105082
-0.0105494
-0.01059
-0.0106302
-0.0106701
-0.0107097
-0.010749
-0.010788
-0.0108268
-0.0108656
-0.0109044
-0.0109433
-0.0109822
-0.0110208
-0.0110595
-0.0110982
-0.011137
-0.0111756
-0.0112141
-0.0112524
-0.0112908
-0.0113289
-0.0113668
-0.0114045
-0.0114423
-0.0114798
-0.0115172
-0.0115542
-0.0115912
-0.0116281
-0.0116647
-0.0117012
-0.0117374
-0.0117735
-0.0118092
-0.0118449
-0.0118803
-0.0119158
-0.011951
-0.0119862
-0.0120211
-0.0120561
-0.0120911
-0.012126
-0.0121609
-0.0121955
-0.0122303
-0.0122646
-0.0122992
-0.0123332
-0.0123675
-0.0124011
-0.0124349
-0.0124685
-0.012502
-0.0125352
-0.012568
-0.0126009
-0.0126334
-0.0126662
-0.0126982
-0.0127307
-0.0127623
-0.0127944
-0.0128259
-0.0128576
-0.012889
-0.0129199
-0.0129511
-0.0129816
-0.0130126
-0.0130425
-0.0130731
-0.0131027
-0.013133
-0.0131627
-0.0131921
-0.0132215
-0.0132501
-0.0132799
-0.0133081
-0.0133372
-0.0133648
-0.0133937
-0.0134217
-0.0134495
-0.0134773
-0.013504
-0.0135321
-0.0135579
-0.0135853
-0.0136107
-0.0136376
-0.0136636
-0.013689
-0.0137152
-0.0137394
-0.0137662
-0.0137896
-0.0138153
-0.013839
-0.0138635
-0.013888
-0.0139103
-0.0139354
-0.0139567
-0.013981
-0.0140023
-0.0140244
-0.0140475
-0.0140671
-0.0140912
-0.0141091
-0.0141325
-0.0141509
-0.0141708
-0.014191
-0.0142068
-0.0142274
-0.0142417
-0.0142579
-0.0142746
-0.0142846
-0.0143041
-0.0143108
-0.0143315
0.00499628
0.00174411
-0.00452855
-0.00939966
-0.0107522
-0.0097278
-0.00827884
-0.00724804
-0.00667465
-0.00640121
-0.00630269
-0.00630734
-0.00637392
-0.00647543
-0.00659403
-0.00671928
-0.00684398
-0.00696137
-0.00706641
-0.00715835
-0.00723986
-0.00731481
-0.0073867
-0.00745778
-0.00752868
-0.00759941
-0.00767045
-0.00774297
-0.00781794
-0.0078957
-0.00797542
-0.00805596
-0.00813662
-0.0082173
-0.00829769
-0.00837718
-0.008455
-0.00853083
-0.00860446
-0.00867584
-0.00874522
-0.00881306
-0.00887949
-0.0089443
-0.00900721
-0.0090684
-0.00912854
-0.00918809
-0.00924695
-0.00930468
-0.0093611
-0.00941635
-0.00947088
-0.00952477
-0.00957788
-0.00962994
-0.00968116
-0.00973175
-0.00978194
-0.00983154
-0.0098804
-0.00992846
-0.00997599
-0.0100231
-0.0100699
-0.0101162
-0.0101618
-0.0102066
-0.0102509
-0.010295
-0.0103387
-0.0103819
-0.0104244
-0.0104664
-0.010508
-0.0105491
-0.0105897
-0.01063
-0.0106698
-0.0107095
-0.0107487
-0.0107878
-0.0108266
-0.0108654
-0.0109042
-0.0109432
-0.010982
-0.0110207
-0.0110593
-0.011098
-0.0111369
-0.0111755
-0.011214
-0.0112523
-0.0112907
-0.0113287
-0.0113667
-0.0114044
-0.0114422
-0.0114797
-0.011517
-0.0115541
-0.0115911
-0.011628
-0.0116646
-0.0117011
-0.0117372
-0.0117733
-0.0118091
-0.0118448
-0.0118802
-0.0119157
-0.0119509
-0.0119861
-0.012021
-0.012056
-0.012091
-0.0121259
-0.0121608
-0.0121954
-0.0122302
-0.0122645
-0.0122991
-0.0123331
-0.0123674
-0.012401
-0.0124349
-0.0124684
-0.0125019
-0.0125351
-0.0125679
-0.0126009
-0.0126333
-0.0126661
-0.0126982
-0.0127306
-0.0127622
-0.0127943
-0.0128259
-0.0128576
-0.012889
-0.0129199
-0.0129511
-0.0129815
-0.0130126
-0.0130425
-0.0130731
-0.0131026
-0.0131329
-0.0131626
-0.0131921
-0.0132214
-0.0132501
-0.0132798
-0.0133081
-0.0133371
-0.0133648
-0.0133936
-0.0134217
-0.0134494
-0.0134772
-0.013504
-0.0135321
-0.0135579
-0.0135853
-0.0136107
-0.0136376
-0.0136636
-0.0136889
-0.0137152
-0.0137394
-0.0137661
-0.0137895
-0.0138153
-0.013839
-0.0138635
-0.0138879
-0.0139102
-0.0139353
-0.0139566
-0.013981
-0.0140023
-0.0140244
-0.0140474
-0.0140671
-0.0140912
-0.014109
-0.0141325
-0.0141509
-0.0141707
-0.014191
-0.0142068
-0.0142274
-0.0142416
-0.0142578
-0.0142746
-0.0142846
-0.0143041
-0.0143108
-0.0143315
0.00429144
0.001571
-0.00427753
-0.00903079
-0.0105181
-0.00963287
-0.00822945
-0.00720497
-0.00663668
-0.00637114
-0.00627986
-0.00628977
-0.00635992
-0.00646393
-0.00658434
-0.00671092
-0.00683659
-0.00695468
-0.00706031
-0.00715284
-0.00723495
-0.00731047
-0.00738286
-0.00745435
-0.00752557
-0.0075966
-0.00766791
-0.00774067
-0.00781585
-0.00789377
-0.00797362
-0.00805427
-0.00813504
-0.00821583
-0.00829631
-0.00837587
-0.00845375
-0.00852964
-0.00860333
-0.00867478
-0.00874422
-0.0088121
-0.00887857
-0.00894342
-0.00900637
-0.00906759
-0.00912777
-0.00918735
-0.00924624
-0.00930399
-0.00936043
-0.00941572
-0.00947027
-0.00952419
-0.00957732
-0.0096294
-0.00968064
-0.00973125
-0.00978146
-0.00983107
-0.00987995
-0.00992803
-0.00997558
-0.0100227
-0.0100696
-0.0101159
-0.0101614
-0.0102062
-0.0102506
-0.0102947
-0.0103384
-0.0103816
-0.0104241
-0.0104661
-0.0105077
-0.0105489
-0.0105895
-0.0106297
-0.0106696
-0.0107092
-0.0107485
-0.0107876
-0.0108264
-0.0108652
-0.010904
-0.0109429
-0.0109818
-0.0110205
-0.0110591
-0.0110978
-0.0111367
-0.0111753
-0.0112138
-0.0112521
-0.0112905
-0.0113285
-0.0113665
-0.0114042
-0.011442
-0.0114796
-0.0115169
-0.011554
-0.0115909
-0.0116278
-0.0116645
-0.011701
-0.0117371
-0.0117732
-0.0118089
-0.0118447
-0.0118801
-0.0119156
-0.0119507
-0.0119859