/*--------------------------------*- C++ -*----------------------------------*\
| =========                 |                                                 |
| \\      /  F ield         | OpenFOAM: The Open Source CFD Toolbox           |
|  \\    /   O peration     | Version:  v2012                                 |
|   \\  /    A nd           | Website:  www.openfoam.com                      |
|    \\/     M anipulation  |                                                 |
\*---------------------------------------------------------------------------*/
FoamFile
{
    version     2.0;
    format      ascii;
    class       volVectorField;
    location    "4.3";
    object      U;
}
// * * * * * * * * * * * * * * * * * * * * * * * * * * * * * * * * * * * * * //

dimensions      [0 1 -1 0 0 0 0];


internalField   nonuniform List<vector> 
17600
(
(0.836175 0.0040824 0)
(1.17187 0.000137192 0)
(0.823734 -0.00283171 0)
(1.14993 0.00088276 0)
(0.832605 0.000128511 0)
(1.13846 -0.000372367 0)
(0.836937 0.000524203 0)
(1.12751 -0.000362429 0)
(0.845658 0.00108456 0)
(1.1172 -0.000701379 0)
(0.851575 0.000659393 0)
(1.10862 -0.00109534 0)
(0.85605 0.000316094 0)
(1.10222 -0.00126905 0)
(0.856945 0.000414476 0)
(1.09885 -0.00126861 0)
(0.853059 0.000874403 0)
(1.09782 -0.000876767 0)
(0.842103 0.00252759 0)
(1.09692 0.000261223 0)
(0.844555 0.00394933 0)
(1.15804 0.000411677 0)
(0.83664 -0.00284573 0)
(1.1357 0.000987645 0)
(0.848493 1.37372e-05 0)
(1.12192 -0.000193084 0)
(0.855946 0.000412564 0)
(1.10764 -0.000205347 0)
(0.86885 0.000971335 0)
(1.09279 -0.000542651 0)
(0.880568 0.000526155 0)
(1.07819 -0.000932526 0)
(0.89323 0.0001733 0)
(1.06276 -0.00111652 0)
(0.90663 0.000321758 0)
(1.04486 -0.00119916 0)
(0.922574 0.00105667 0)
(1.02033 -0.00109124 0)
(0.942601 0.00382619 0)
(0.982024 -0.000461825 0)
(0.861507 0.00384211 0)
(1.13375 0.000654643 0)
(0.861748 -0.00284651 0)
(1.10875 0.00106034 0)
(0.876888 -3.37331e-05 0)
(1.09241 -8.16325e-05 0)
(0.888733 0.000364568 0)
(1.07434 -0.000154154 0)
(0.905943 0.000957747 0)
(1.05585 -0.000520711 0)
(0.922173 0.000560474 0)
(1.03802 -0.000974008 0)
(0.93858 0.000302717 0)
(1.02029 -0.00124459 0)
(0.953606 0.000575672 0)
(1.00313 -0.00142235 0)
(0.966326 0.00146588 0)
(0.986597 -0.00132946 0)
(0.973653 0.0042084 0)
(0.971985 0.000336847 0)
(0.884711 0.00381688 0)
(1.10374 0.000775475 0)
(0.894867 -0.00277503 0)
(1.07525 0.00105449 0)
(0.910414 -3.86541e-06 0)
(1.05836 -8.77753e-05 0)
(0.924271 0.000434426 0)
(1.03968 -0.000234703 0)
(0.941562 0.00107321 0)
(1.0229 -0.00064504 0)
(0.95627 0.00072117 0)
(1.0091 -0.00114281 0)
(0.968543 0.00052186 0)
(0.997784 -0.00143837 0)
(0.976616 0.00082955 0)
(0.989521 -0.00159569 0)
(0.98038 0.0017206 0)
(0.983316 -0.00136972 0)
(0.978962 0.00437385 0)
(0.977956 0.00123091 0)
(0.91057 0.00385448 0)
(1.0733 0.000785689 0)
(0.929063 -0.00262299 0)
(1.04331 0.00100142 0)
(0.941258 7.49274e-05 0)
(1.02917 -0.000158796 0)
(0.953309 0.000558001 0)
(1.01405 -0.000357243 0)
(0.966537 0.00120678 0)
(1.00318 -0.000786146 0)
(0.976245 0.000850548 0)
(0.99635 -0.00127366 0)
(0.982824 0.000654174 0)
(0.9917 -0.00153468 0)
(0.985486 0.000948984 0)
(0.988704 -0.00164107 0)
(0.985325 0.00183683 0)
(0.985543 -0.00126814 0)
(0.982274 0.00447754 0)
(0.981067 0.00215219 0)
(0.935366 0.00393087 0)
(1.04721 0.00070704 0)
(0.958141 -0.00242282 0)
(1.0193 0.000945337 0)
(0.96475 0.000160529 0)
(1.01021 -0.000240656 0)
(0.972723 0.000669838 0)
(1.00064 -0.000455858 0)
(0.980907 0.00128844 0)
(0.995735 -0.000883429 0)
(0.986254 0.000901952 0)
(0.993911 -0.00134308 0)
(0.989508 0.000704269 0)
(0.992519 -0.00156747 0)
(0.990047 0.000999495 0)
(0.991037 -0.00162807 0)
(0.988871 0.00190193 0)
(0.988235 -0.00109649 0)
(0.985586 0.00455039 0)
(0.983913 0.00300954 0)
(0.956287 0.00402113 0)
(1.0282 0.000577613 0)
(0.979047 -0.00221632 0)
(1.00533 0.000912682 0)
(0.980336 0.000224099 0)
(1.0013 -0.000303779 0)
(0.984326 0.000743952 0)
(0.996532 -0.000516994 0)
(0.988903 0.00131741 0)
(0.99526 -0.000945508 0)
(0.991856 0.00090348 0)
(0.995679 -0.00138418 0)
(0.993814 0.000719162 0)
(0.995295 -0.00157722 0)
(0.993701 0.00102746 0)
(0.994034 -0.00158133 0)
(0.992161 0.00193079 0)
(0.991189 -0.000847375 0)
(0.988707 0.00455588 0)
(0.987022 0.00383371 0)
(0.972022 0.00410059 0)
(1.0164 0.000435744 0)
(0.991945 -0.00203472 0)
(0.999544 0.000905522 0)
(0.989925 0.000260976 0)
(0.998953 -0.000345074 0)
(0.991276 0.000784269 0)
(0.997158 -0.000554438 0)
(0.99405 0.00131721 0)
(0.997405 -0.000991179 0)
(0.995912 0.00088562 0)
(0.998477 -0.00141504 0)
(0.997373 0.00072337 0)
(0.998282 -0.00157321 0)
(0.996975 0.00104315 0)
(0.996974 -0.0014991 0)
(0.995199 0.00192594 0)
(0.994056 -0.000523905 0)
(0.991651 0.00450449 0)
(0.990014 0.00462367 0)
(0.982706 0.00415287 0)
(1.01008 0.000307503 0)
(0.998835 -0.00189058 0)
(0.998443 0.000909847 0)
(0.995743 0.000280695 0)
(0.999545 -0.000373511 0)
(0.995766 0.000804218 0)
(0.99923 -0.000582472 0)
(0.997854 0.00130603 0)
(0.999906 -0.0010281 0)
(0.999142 0.000862507 0)
(1.00102 -0.00143764 0)
(1.0003 0.000722559 0)
(1.00081 -0.0015533 0)
(0.999711 0.00104467 0)
(0.99944 -0.00137707 0)
(0.997782 0.00188686 0)
(0.9965 -0.00013827 0)
(0.994233 0.00442598 0)
(0.992632 0.00535865 0)
(0.989368 0.00417376 0)
(1.00709 0.000203073 0)
(1.00204 -0.00178007 0)
(0.999096 0.000910659 0)
(0.999307 0.000293554 0)
(1.00083 -0.000397399 0)
(0.998777 0.00081453 0)
(1.00118 -0.000608063 0)
(1.00064 0.00129191 0)
(1.0019 -0.00105757 0)
(1.00153 0.000838055 0)
(1.0029 -0.0014498 0)
(1.00245 0.000714474 0)
(1.00263 -0.00151333 0)
(1.00173 0.00102646 0)
(1.00125 -0.00121693 0)
(0.999737 0.00181718 0)
(0.998371 0.000294283 0)
(0.996283 0.00434474 0)
(0.994745 0.00601024 0)
(0.993282 0.00416757 0)
(1.00576 0.000122434 0)
(1.00333 -0.00169343 0)
(0.999947 0.000900349 0)
(1.00145 0.00030483 0)
(1.00189 -0.000420817 0)
(1.00071 0.000820778 0)
(1.00256 -0.000632983 0)
(1.0025 0.00127668 0)
(1.00321 -0.0010794 0)
(1.00309 0.000811558 0)
(1.00407 -0.0014493 0)
(1.00382 0.000694431 0)
(1.00378 -0.00144996 0)
(1.00303 0.000981595 0)
(1.00244 -0.00102171 0)
(1.00106 0.00172274 0)
(0.999681 0.000750984 0)
(0.997786 0.00428446 0)
(0.996347 0.00655702 0)
(0.995517 0.00414119 0)
(1.00514 6.18656e-05 0)
(1.00378 -0.00162222 0)
(1.00051 0.000878396 0)
(1.00267 0.00031529 0)
(1.00256 -0.000445082 0)
(1.00186 0.000825029 0)
(1.00339 -0.000656968 0)
(1.0036 0.00125963 0)
(1.00395 -0.00109333 0)
(1.00397 0.000780504 0)
(1.0047 -0.00143419 0)
(1.00457 0.000657709 0)
(1.0044 -0.0013617 0)
(1.00377 0.000906848 0)
(1.00314 -0.000797769 0)
(1.00188 0.00161393 0)
(1.00054 0.00120394 0)
(0.998847 0.00426722 0)
(0.997531 0.00698901 0)
(0.996798 0.00410048 0)
(1.00482 1.66788e-05 0)
(1.0039 -0.00155993 0)
(1.00079 0.000848031 0)
(1.00333 0.000325002 0)
(1.00293 -0.000469968 0)
(1.0025 0.000827645 0)
(1.00385 -0.000679185 0)
(1.0042 0.00123916 0)
(1.00433 -0.00109828 0)
(1.00442 0.000741349 0)
(1.00499 -0.00140222 0)
(1.00493 0.000600806 0)
(1.0047 -0.0012492 0)
(1.00415 0.000805369 0)
(1.00351 -0.000556323 0)
(1.00238 0.0015077 0)
(1.0011 0.00162689 0)
(0.999602 0.00430671 0)
(0.998416 0.00730965 0)
(0.99755 0.0040492 0)
(1.00462 -1.66595e-05 0)
(1.00392 -0.00150331 0)
(1.00092 0.000812805 0)
(1.00367 0.000332919 0)
(1.00312 -0.000494784 0)
(1.00284 0.000828001 0)
(1.00409 -0.000698553 0)
(1.00452 0.0012129 0)
(1.00451 -0.00109239 0)
(1.00463 0.000690867 0)
(1.00511 -0.00135219 0)
(1.00509 0.00052287 0)
(1.00482 -0.0011156 0)
(1.00434 0.000685995 0)
(1.00371 -0.000310662 0)
(1.00268 0.00142252 0)
(1.00147 0.002 0)
(1.00016 0.00440427 0)
(0.999105 0.00753489 0)
(0.998001 0.00398951 0)
(1.00448 -4.05357e-05 0)
(1.00392 -0.00145134 0)
(1.00097 0.000775653 0)
(1.00385 0.000337382 0)
(1.00321 -0.000518509 0)
(1.00302 0.000824881 0)
(1.00422 -0.00071352 0)
(1.00469 0.00117829 0)
(1.00459 -0.00107407 0)
(1.00472 0.000626417 0)
(1.00514 -0.00128307 0)
(1.00515 0.000424028 0)
(1.00486 -0.000963883 0)
(1.00443 0.000554472 0)
(1.00381 -5.80972e-05 0)
(1.00289 0.00137842 0)
(1.00175 0.00231929 0)
(1.00061 0.00455303 0)
(0.999668 0.00768827 0)
(0.998278 0.00392271 0)
(1.00437 -5.6365e-05 0)
(1.00392 -0.00140421 0)
(1.00099 0.000738924 0)
(1.00394 0.000337487 0)
(1.00325 -0.00053945 0)
(1.00313 0.000816898 0)
(1.00428 -0.000721539 0)
(1.00478 0.00113228 0)
(1.00462 -0.00104083 0)
(1.00477 0.000544724 0)
(1.00515 -0.00119416 0)
(1.00518 0.000307526 0)
(1.00487 -0.000802144 0)
(1.00449 0.000426094 0)
(1.00387 0.000186584 0)
(1.00306 0.00137977 0)
(1.00197 0.00258983 0)
(1.00099 0.00473979 0)
(1.00015 0.00779513 0)
(0.998456 0.00384951 0)
(1.00426 -6.46664e-05 0)
(1.00393 -0.00136276 0)
(1.00099 0.000704556 0)
(1.00398 0.000332314 0)
(1.00327 -0.000556458 0)
(1.00319 0.000801995 0)
(1.00431 -0.00072056 0)
(1.00483 0.00107227 0)
(1.00462 -0.000991063 0)
(1.0048 0.000445966 0)
(1.00514 -0.00108861 0)
(1.00521 0.00018124 0)
(1.00487 -0.000641637 0)
(1.00454 0.000318559 0)
(1.00392 0.000392711 0)
(1.0032 0.00142296 0)
(1.00218 0.00281925 0)
(1.00133 0.00494592 0)
(1.00058 0.00787827 0)
(0.998579 0.00377033 0)
(1.00415 -6.56228e-05 0)
(1.00395 -0.00132776 0)
(1.00098 0.000674177 0)
(1.004 0.0003202 0)
(1.00326 -0.000567942 0)
(1.00323 0.000777493 0)
(1.00431 -0.000708162 0)
(1.00486 0.000996539 0)
(1.0046 -0.000925942 0)
(1.00482 0.000335736 0)
(1.00512 -0.000974995 0)
(1.00524 6.0095e-05 0)
(1.00486 -0.000488679 0)
(1.0046 0.000238553 0)
(1.00397 0.000559855 0)
(1.00335 0.00151007 0)
(1.00239 0.0030184 0)
(1.00166 0.00515327 0)
(1.00098 0.00795451 0)
(0.998676 0.00368536 0)
(1.00404 -5.90236e-05 0)
(1.00397 -0.00130045 0)
(1.00097 0.00064993 0)
(1.004 0.000299352 0)
(1.00325 -0.000571294 0)
(1.00325 0.00074198 0)
(1.00431 -0.000683743 0)
(1.00488 0.00090647 0)
(1.00458 -0.000849401 0)
(1.00484 0.000216356 0)
(1.00511 -0.00085375 0)
(1.00527 -6.38186e-05 0)
(1.00486 -0.00035327 0)
(1.00466 0.000190644 0)
(1.00404 0.000698144 0)
(1.0035 0.0016343 0)
(1.0026 0.00319857 0)
(1.00199 0.00534876 0)
(1.00137 0.00803178 0)
(0.998761 0.00359445 0)
(1.00392 -4.39369e-05 0)
(1.004 -0.00128271 0)
(1.00096 0.000633645 0)
(1.004 0.000268797 0)
(1.00323 -0.000564963 0)
(1.00327 0.000694365 0)
(1.0043 -0.000646993 0)
(1.00489 0.000800425 0)
(1.00455 -0.00076003 0)
(1.00486 8.73934e-05 0)
(1.00509 -0.000735032 0)
(1.00531 -0.000187681 0)
(1.00487 -0.000242993 0)
(1.00473 0.000169639 0)
(1.00411 0.000811788 0)
(1.00365 0.00178188 0)
(1.00282 0.0033714 0)
(1.00232 0.00552531 0)
(1.00175 0.00810898 0)
(0.998838 0.00349741 0)
(1.00381 -1.95799e-05 0)
(1.00403 -0.00127619 0)
(1.00095 0.000627275 0)
(1.00399 0.000225057 0)
(1.00322 -0.000547096 0)
(1.00328 0.000633286 0)
(1.00428 -0.000596788 0)
(1.00491 0.000679434 0)
(1.00451 -0.000661874 0)
(1.00487 -4.8437e-05 0)
(1.00507 -0.000636757 0)
(1.00535 -0.000289457 0)
(1.00489 -0.000158678 0)
(1.0048 0.000174147 0)
(1.0042 0.000910652 0)
(1.00382 0.00194354 0)
(1.00306 0.00355198 0)
(1.00266 0.00568876 0)
(1.00212 0.00818673 0)
(0.998909 0.00339426 0)
(1.00369 1.44764e-05 0)
(1.00405 -0.0012821 0)
(1.00094 0.000631558 0)
(1.00398 0.000167927 0)
(1.00321 -0.000518955 0)
(1.00329 0.000560948 0)
(1.00427 -0.000536684 0)
(1.00492 0.00054965 0)
(1.00448 -0.000566798 0)
(1.00489 -0.000177488 0)
(1.00506 -0.000560245 0)
(1.00539 -0.000367678 0)
(1.00491 -0.000100578 0)
(1.00487 0.000198176 0)
(1.00431 0.00100178 0)
(1.004 0.00210907 0)
(1.00331 0.00374619 0)
(1.003 0.00584754 0)
(1.0025 0.00826655 0)
(0.998972 0.00328507 0)
(1.00359 5.98332e-05 0)
(1.00406 -0.00130249 0)
(1.00094 0.000647354 0)
(1.00396 9.84805e-05 0)
(1.0032 -0.000481955 0)
(1.0033 0.000476736 0)
(1.00426 -0.000468906 0)
(1.00492 0.000416455 0)
(1.00445 -0.000480345 0)
(1.0049 -0.000285965 0)
(1.00505 -0.000504955 0)
(1.00542 -0.000421843 0)
(1.00494 -6.52642e-05 0)
(1.00495 0.000223685 0)
(1.00443 0.00107946 0)
(1.0042 0.00226197 0)
(1.00358 0.00394555 0)
(1.00335 0.00600166 0)
(1.00288 0.00835054 0)
(0.999023 0.00316771 0)
(1.00349 0.000120903 0)
(1.00407 -0.00134273 0)
(1.00095 0.000680213 0)
(1.00392 9.51396e-06 0)
(1.0032 -0.000431108 0)
(1.0033 0.000381212 0)
(1.00425 -0.000399026 0)
(1.00492 0.000286788 0)
(1.00443 -0.000413185 0)
(1.00491 -0.000372662 0)
(1.00505 -0.000475247 0)
(1.00545 -0.000459796 0)
(1.00498 -4.62616e-05 0)
(1.00503 0.000251094 0)
(1.00456 0.0011416 0)
(1.0044 0.00239428 0)
(1.00385 0.00413895 0)
(1.0037 0.00615465 0)
(1.00326 0.00845717 0)
(0.999061 0.00304499 0)
(1.0034 0.000194026 0)
(1.00405 -0.00139761 0)
(1.00097 0.000721545 0)
(1.00388 -8.85236e-05 0)
(1.00321 -0.000379411 0)
(1.00329 0.000289564 0)
(1.00426 -0.00034187 0)
(1.00492 0.000175535 0)
(1.00441 -0.000385562 0)
(1.0049 -0.000424047 0)
(1.00506 -0.000484176 0)
(1.00548 -0.00048102 0)
(1.00504 -5.54691e-05 0)
(1.00511 0.000302994 0)
(1.00472 0.00115946 0)
(1.00462 0.00248143 0)
(1.00415 0.00423344 0)
(1.00406 0.00628383 0)
(1.00365 0.00858136 0)
(0.999085 0.00291558 0)
(1.00332 0.000281029 0)
(1.00403 -0.00146956 0)
(1.00101 0.0007721 0)
(1.00382 -0.000194668 0)
(1.00324 -0.000326804 0)
(1.00327 0.000201929 0)
(1.00427 -0.00030152 0)
(1.0049 8.34251e-05 0)
(1.0044 -0.00038036 0)
(1.00489 -0.000456939 0)
(1.00507 -0.000493039 0)
(1.0055 -0.00051212 0)
(1.0051 -8.02166e-05 0)
(1.00518 0.000345529 0)
(1.00488 0.00116995 0)
(1.00485 0.00249334 0)
(1.00447 0.00424829 0)
(1.00444 0.00627112 0)
(1.00407 0.0085286 0)
(0.999096 0.002777 0)
(1.00324 0.000386578 0)
(1.00399 -0.00156241 0)
(1.00105 0.000836394 0)
(1.00375 -0.000312302 0)
(1.00326 -0.000274257 0)
(1.00323 0.000123936 0)
(1.00428 -0.000286867 0)
(1.00487 1.87669e-05 0)
(1.0044 -0.000393395 0)
(1.00487 -0.000480079 0)
(1.00509 -0.000509484 0)
(1.00551 -0.000514863 0)
(1.00517 -0.000124553 0)
(1.00526 0.000321847 0)
(1.00505 0.00118289 0)
(1.00509 0.00254452 0)
(1.0048 0.00432952 0)
(1.00482 0.00630269 0)
(1.00452 0.00852302 0)
(0.9991 0.00263489 0)
(1.00317 0.00050307 0)
(1.00394 -0.00166472 0)
(1.00109 0.00089771 0)
(1.00367 -0.000423996 0)
(1.0033 -0.00024097 0)
(1.00319 7.11336e-05 0)
(1.0043 -0.000306602 0)
(1.00484 -2.15983e-05 0)
(1.0044 -0.000420069 0)
(1.00484 -0.000508092 0)
(1.00511 -0.000517813 0)
(1.00552 -0.00052392 0)
(1.00524 -0.000101576 0)
(1.00534 0.000434231 0)
(1.00524 0.00129819 0)
(1.00534 0.00271699 0)
(1.00514 0.0044795 0)
(1.0052 0.00644498 0)
(1.00497 0.00855516 0)
(0.9991 0.00248431 0)
(1.0031 0.00063543 0)
(1.00389 -0.00178403 0)
(1.00114 0.000961252 0)
(1.00358 -0.000529106 0)
(1.00333 -0.000228899 0)
(1.00315 4.54849e-05 0)
(1.00431 -0.000350055 0)
(1.0048 -4.63122e-05 0)
(1.0044 -0.000437901 0)
(1.00481 -0.000539976 0)
(1.00513 -0.000481931 0)
(1.00553 -0.000511719 0)
(1.00533 1.69873e-05 0)
(1.00544 0.000673901 0)
(1.00543 0.00152154 0)
(1.00559 0.00288747 0)
(1.00549 0.00464043 0)
(1.00559 0.0065812 0)
(1.00542 0.00859731 0)
(0.999102 0.0023291 0)
(1.00301 0.000781484 0)
(1.00384 -0.00191274 0)
(1.00118 0.00101629 0)
(1.00349 -0.000611794 0)
(1.00337 -0.0002523 0)
(1.0031 4.89949e-05 0)
(1.00433 -0.000409012 0)
(1.00476 -7.0085e-05 0)
(1.00439 -0.000431412 0)
(1.00479 -0.000556105 0)
(1.00515 -0.000419887 0)
(1.00555 -0.000386647 0)
(1.00543 0.000138658 0)
(1.00554 0.000867982 0)
(1.00562 0.00172994 0)
(1.00585 0.0030138 0)
(1.00586 0.00475009 0)
(1.00599 0.00666023 0)
(1.00587 0.0085988 0)
(0.99911 0.00217004 0)
(1.00292 0.000934589 0)
(1.00378 -0.00203634 0)
(1.00122 0.00104512 0)
(1.0034 -0.000664669 0)
(1.0034 -0.000312721 0)
(1.00305 7.60128e-05 0)
(1.00433 -0.000472695 0)
(1.00473 -9.70602e-05 0)
(1.00438 -0.000388718 0)
(1.00477 -0.000553338 0)
(1.00518 -0.000302101 0)
(1.00557 -0.000217315 0)
(1.00554 0.000253638 0)
(1.00566 0.00104614 0)
(1.00582 0.00193511 0)
(1.00612 0.00313784 0)
(1.00623 0.00481218 0)
(1.0064 0.00668424 0)
(1.00631 0.00854922 0)
(0.999127 0.0020058 0)
(1.0028 0.00109031 0)
(1.00373 -0.00214917 0)
(1.00126 0.00104391 0)
(1.00331 -0.000693821 0)
(1.00344 -0.000406049 0)
(1.00301 0.000120276 0)
(1.00433 -0.000522054 0)
(1.00471 -0.000113238 0)
(1.00437 -0.000299296 0)
(1.00476 -0.000501158 0)
(1.00522 -0.000152768 0)
(1.0056 -4.15829e-05 0)
(1.00565 0.0003575 0)
(1.00579 0.00118346 0)
(1.00601 0.00213052 0)
(1.00638 0.00326802 0)
(1.00661 0.00484883 0)
(1.00681 0.00665544 0)
(1.00674 0.00844803 0)
(0.999153 0.00184241 0)
(1.00268 0.0012415 0)
(1.00368 -0.00223936 0)
(1.00128 0.000997689 0)
(1.00321 -0.00068783 0)
(1.00347 -0.000534482 0)
(1.00297 0.000173696 0)
(1.00432 -0.000544022 0)
(1.0047 -0.000117658 0)
(1.00435 -0.000138912 0)
(1.00476 -0.000407247 0)
(1.00525 -3.56445e-05 0)
(1.00563 0.000124259 0)
(1.00575 0.000466911 0)
(1.00594 0.00128598 0)
(1.00621 0.00230508 0)
(1.00665 0.00340759 0)
(1.00697 0.00487401 0)
(1.00723 0.00658216 0)
(1.00717 0.00829914 0)
(0.999189 0.00167729 0)
(1.00253 0.0013852 0)
(1.00363 -0.00229801 0)
(1.00131 0.000907224 0)
(1.00312 -0.00065614 0)
(1.00349 -0.000679771 0)
(1.00295 0.000226553 0)
(1.0043 -0.000540607 0)
(1.00471 -8.6636e-05 0)
(1.00433 6.24659e-05 0)
(1.00475 -0.000291887 0)
(1.00529 4.74977e-05 0)
(1.00566 0.000297213 0)
(1.00585 0.000602958 0)
(1.0061 0.00136702 0)
(1.00643 0.00243582 0)
(1.00691 0.00354008 0)
(1.00733 0.00489268 0)
(1.00764 0.00647777 0)
(1.0076 0.00811211 0)
(0.999231 0.00151321 0)
(1.00238 0.00151546 0)
(1.00357 -0.00231714 0)
(1.00133 0.000783251 0)
(1.00302 -0.000613759 0)
(1.00351 -0.000824545 0)
(1.00293 0.000280319 0)
(1.00428 -0.00047253 0)
(1.00473 -4.06494e-05 0)
(1.00432 0.000249658 0)
(1.00474 -0.000170565 0)
(1.00534 0.000112953 0)
(1.0057 0.000472268 0)
(1.00593 0.000762666 0)
(1.00626 0.0014424 0)
(1.00665 0.00251893 0)
(1.00717 0.00365108 0)
(1.00767 0.00491459 0)
(1.00804 0.00636667 0)
(1.00802 0.00790389 0)
(0.999277 0.00135529 0)
(1.00222 0.00162087 0)
(1.0035 -0.00229271 0)
(1.00135 0.000636001 0)
(1.00292 -0.000560591 0)
(1.00353 -0.000956225 0)
(1.00292 0.000353427 0)
(1.00425 -0.000341467 0)
(1.00476 -1.54872e-05 0)
(1.0043 0.000412878 0)
(1.00472 -3.12593e-05 0)
(1.00538 0.000158008 0)
(1.00575 0.000621044 0)
(1.00601 0.000928606 0)
(1.00642 0.00152293 0)
(1.00688 0.00256641 0)
(1.00744 0.00372926 0)
(1.00799 0.0049387 0)
(1.00842 0.00626401 0)
(1.00843 0.00768673 0)
(0.999327 0.00119926 0)
(1.00205 0.00170388 0)
(1.00343 -0.00222851 0)
(1.00138 0.000486227 0)
(1.00282 -0.000498972 0)
(1.00356 -0.00105367 0)
(1.00293 0.000430445 0)
(1.00422 -0.000195099 0)
(1.0048 -1.49592e-05 0)
(1.00429 0.000555714 0)
(1.00469 0.000135115 0)
(1.00543 0.000201641 0)
(1.00581 0.000740525 0)
(1.00609 0.00110292 0)
(1.00658 0.00161974 0)
(1.00712 0.00259431 0)
(1.00772 0.00376908 0)
(1.00831 0.00495354 0)
(1.00879 0.00617014 0)
(1.00883 0.00746644 0)
(0.999378 0.00104764 0)
(1.00188 0.00176601 0)
(1.00334 -0.00213354 0)
(1.0014 0.000344055 0)
(1.00272 -0.000413696 0)
(1.00358 -0.00111412 0)
(1.00295 0.000485583 0)
(1.00418 -3.01158e-05 0)
(1.00483 -1.97753e-05 0)
(1.0043 0.000666545 0)
(1.00465 0.000319619 0)
(1.00547 0.000256285 0)
(1.00589 0.000829026 0)
(1.00618 0.00128128 0)
(1.00673 0.0017404 0)
(1.00736 0.00261663 0)
(1.00801 0.00377314 0)
(1.00863 0.00494726 0)
(1.00915 0.00607843 0)
(1.00921 0.00724706 0)
(0.99943 0.000905218 0)
(1.00171 0.00179257 0)
(1.00324 -0.002015 0)
(1.00143 0.000219326 0)
(1.00262 -0.000298787 0)
(1.00361 -0.00114763 0)
(1.00299 0.000518657 0)
(1.00413 0.000153098 0)
(1.00487 -1.35864e-05 0)
(1.00432 0.000750028 0)
(1.00461 0.000522573 0)
(1.00551 0.00033388 0)
(1.00599 0.000885679 0)
(1.00627 0.00144521 0)
(1.00687 0.00188049 0)
(1.0076 0.0026421 0)
(1.00831 0.00374455 0)
(1.00895 0.00490666 0)
(1.00949 0.00597604 0)
(1.00957 0.00702815 0)
(0.999481 0.000771777 0)
(1.00155 0.00178299 0)
(1.00314 -0.0018741 0)
(1.00146 0.000117103 0)
(1.00252 -0.000164473 0)
(1.00363 -0.00115122 0)
(1.00305 0.000525777 0)
(1.00408 0.000343925 0)
(1.0049 9.55992e-06 0)
(1.00436 0.000799865 0)
(1.00457 0.000728054 0)
(1.00553 0.00044033 0)
(1.0061 0.000918017 0)
(1.00638 0.00158054 0)
(1.007 0.00203378 0)
(1.00782 0.00268657 0)
(1.00861 0.00369838 0)
(1.00927 0.004831 0)
(1.00981 0.00585535 0)
(1.00991 0.0068093 0)
(0.999532 0.000643405 0)
(1.00139 0.00175222 0)
(1.00302 -0.00172293 0)
(1.00149 2.72981e-05 0)
(1.00242 -1.47651e-05 0)
(1.00364 -0.00110916 0)
(1.00313 0.000513886 0)
(1.00403 0.0005416 0)
(1.00492 5.93614e-05 0)
(1.00441 0.000818037 0)
(1.00454 0.000921955 0)
(1.00555 0.00058102 0)
(1.00622 0.000945025 0)
(1.00651 0.00167864 0)
(1.00713 0.00218449 0)
(1.00803 0.00275468 0)
(1.00891 0.00364949 0)
(1.0096 0.00472655 0)
(1.01014 0.00571314 0)
(1.01023 0.00658919 0)
(0.999582 0.000524529 0)
(1.00124 0.00170336 0)
(1.00291 -0.00157743 0)
(1.00154 -5.8805e-05 0)
(1.00233 0.000137903 0)
(1.00365 -0.00101762 0)
(1.00322 0.000493904 0)
(1.00399 0.000738045 0)
(1.00493 0.000138936 0)
(1.00448 0.000811483 0)
(1.00452 0.00109205 0)
(1.00554 0.000751298 0)
(1.00634 0.000982975 0)
(1.00666 0.00173072 0)
(1.00727 0.0023066 0)
(1.00822 0.00282767 0)
(1.0092 0.00359898 0)
(1.00994 0.00459556 0)
(1.01046 0.00554379 0)
(1.01054 0.00636056 0)
(0.99963 0.000409447 0)
(1.00109 0.00163904 0)
(1.00279 -0.00144194 0)
(1.00159 -0.00013401 0)
(1.00225 0.000316326 0)
(1.00366 -0.000872953 0)
(1.00332 0.000474692 0)
(1.00396 0.000919614 0)
(1.00493 0.000253364 0)
(1.00457 0.000796433 0)
(1.00452 0.00123556 0)
(1.00553 0.000942236 0)
(1.00645 0.00104434 0)
(1.00684 0.00174779 0)
(1.00742 0.00238933 0)
(1.00841 0.00289213 0)
(1.00946 0.00355092 0)
(1.01026 0.00444743 0)
(1.01079 0.00534802 0)
(1.01084 0.00611706 0)
(0.999676 0.000307447 0)
(1.00096 0.00154885 0)
(1.00266 -0.00131904 0)
(1.00165 -0.000222076 0)
(1.00218 0.000556052 0)
(1.00365 -0.000652969 0)
(1.00344 0.000463145 0)
(1.00394 0.00107059 0)
(1.00492 0.000394439 0)
(1.00467 0.000775473 0)
(1.00455 0.001338 0)
(1.00552 0.00113528 0)
(1.00654 0.00112698 0)
(1.00702 0.00174605 0)
(1.00759 0.00243047 0)
(1.00858 0.00293965 0)
(1.00971 0.00350761 0)
(1.01058 0.00429374 0)
(1.01111 0.0051327 0)
(1.01113 0.00585812 0)
(0.999721 0.000208845 0)
(1.00083 0.00143434 0)
(1.00254 -0.00124053 0)
(1.00173 -0.000256075 0)
(1.00214 0.00082648 0)
(1.00362 -0.000366331 0)
(1.00355 0.000479892 0)
(1.00394 0.00120888 0)
(1.0049 0.000573668 0)
(1.00476 0.000776275 0)
(1.00461 0.0014082 0)
(1.00551 0.00133136 0)
(1.00662 0.00124469 0)
(1.0072 0.00175484 0)
(1.00779 0.0024481 0)
(1.00877 0.00297427 0)
(1.00995 0.00347436 0)
(1.01088 0.00414808 0)
(1.01143 0.00490971 0)
(1.01142 0.00558796 0)
(0.999763 0.000142479 0)
(1.00071 0.00128617 0)
(1.00242 -0.00116912 0)
(1.00183 -0.000247431 0)
(1.00211 0.001069 0)
(1.00359 -6.49582e-05 0)
(1.00367 0.000521615 0)
(1.00396 0.00133536 0)
(1.00487 0.000788583 0)
(1.00486 0.000815931 0)
(1.0047 0.00144813 0)
(1.00552 0.00150503 0)
(1.00669 0.00137962 0)
(1.00739 0.00177076 0)
(1.00799 0.00243641 0)
(1.00895 0.00297855 0)
(1.01017 0.00343392 0)
(1.01117 0.00400483 0)
(1.01174 0.00467954 0)
(1.01171 0.00530551 0)
(0.999803 0.000102819 0)
(1.0006 0.00121837 0)
(1.00231 -0.000974774 0)
(1.00195 -0.000319773 0)
(1.00212 0.00114732 0)
(1.00354 0.000179943 0)
(1.00378 0.000521219 0)
(1.004 0.00140134 0)
(1.00484 0.000999767 0)
(1.00494 0.000889864 0)
(1.0048 0.00146748 0)
(1.00554 0.00164424 0)
(1.00675 0.00152096 0)
(1.00756 0.00179881 0)
(1.00821 0.0024021 0)
(1.00915 0.00294594 0)
(1.01037 0.00337247 0)
(1.01143 0.00385527 0)
(1.01204 0.004439 0)
(1.01199 0.0050062 0)
(0.999841 -1.52051e-05 0)
(1.0005 0.00125337 0)
(1.00218 -0.000675532 0)
(1.00205 -0.000387543 0)
(1.00214 0.0011686 0)
(1.00349 0.000443435 0)
(1.00388 0.000548764 0)
(1.00406 0.00143595 0)
(1.0048 0.00119418 0)
(1.00501 0.000978433 0)
(1.00491 0.00145385 0)
(1.00558 0.00171934 0)
(1.00679 0.00163456 0)
(1.00771 0.00181894 0)
(1.00842 0.00233887 0)
(1.00935 0.0028651 0)
(1.01057 0.00327236 0)
(1.01167 0.003685 0)
(1.01231 0.00418196 0)
(1.01226 0.00468593 0)
(0.999868 -2.83814e-05 0)
(1.00042 0.0011259 0)
(1.00203 -0.000442432 0)
(1.00214 -0.000322289 0)
(1.00218 0.00124003 0)
(1.00342 0.000714322 0)
(1.00396 0.000634286 0)
(1.00412 0.00147406 0)
(1.00476 0.00140826 0)
(1.00504 0.0011404 0)
(1.00502 0.00148985 0)
(1.00563 0.00180075 0)
(1.00682 0.00177531 0)
(1.00783 0.00188544 0)
(1.00862 0.0023083 0)
(1.00955 0.00278937 0)
(1.01075 0.00317138 0)
(1.01188 0.00352442 0)
(1.01256 0.00394003 0)
(1.01251 0.00437737 0)
(0.999903 -2.07145e-05 0)
(1.00035 0.000949479 0)
(1.00192 -0.000247874 0)
(1.00223 -0.000221757 0)
(1.00224 0.00130498 0)
(1.00337 0.00099313 0)
(1.00403 0.000776275 0)
(1.00421 0.00151736 0)
(1.00475 0.00160687 0)
(1.00507 0.00133549 0)
(1.00512 0.00155237 0)
(1.0057 0.00185857 0)
(1.00686 0.00188913 0)
(1.00794 0.00195294 0)
(1.00879 0.00228158 0)
(1.00973 0.00270044 0)
(1.01092 0.00304926 0)
(1.01207 0.00335227 0)
(1.01279 0.00369602 0)
(1.01274 0.00406923 0)
(0.999926 -6.86048e-05 0)
(1.0003 0.000961989 0)
(1.0018 9.18401e-06 0)
(1.00232 -0.000167629 0)
(1.00232 0.00131398 0)
(1.00331 0.00124484 0)
(1.00406 0.000927022 0)
(1.0043 0.00152668 0)
(1.00474 0.00173511 0)
(1.00507 0.00150409 0)
(1.0052 0.00160556 0)
(1.00577 0.00187148 0)
(1.0069 0.00193549 0)
(1.00803 0.0019791 0)
(1.00895 0.00222508 0)
(1.00991 0.00257474 0)
(1.01109 0.00288044 0)
(1.01224 0.0031367 0)
(1.01299 0.00341554 0)
(1.01295 0.00372782 0)
(0.999946 -5.45559e-05 0)
(1.00026 0.00100289 0)
(1.00167 0.000231844 0)
(1.00237 -0.000109513 0)
(1.00241 0.00125928 0)
(1.00326 0.00143279 0)
(1.00407 0.00108728 0)
(1.00439 0.0015436 0)
(1.00475 0.00185028 0)
(1.00506 0.00170014 0)
(1.00526 0.00171678 0)
(1.00583 0.00191372 0)
(1.00694 0.00197932 0)
(1.00809 0.00200554 0)
(1.00907 0.00217905 0)
(1.01006 0.00245612 0)
(1.01123 0.00270689 0)
(1.01238 0.00291107 0)
(1.01315 0.00312541 0)
(1.01313 0.00337617 0)
(0.999962 -4.21621e-05 0)
(1.00022 0.000927184 0)
(1.00153 0.000434812 0)
(1.0024 3.2676e-05 0)
(1.00251 0.00127149 0)
(1.00322 0.00166316 0)
(1.00405 0.00133353 0)
(1.00446 0.00161517 0)
(1.00477 0.00194799 0)
(1.00504 0.00188203 0)
(1.00528 0.00184093 0)
(1.00587 0.00194963 0)
(1.00696 0.0019923 0)
(1.00813 0.00199849 0)
(1.00917 0.00211807 0)
(1.01018 0.00233274 0)
(1.01134 0.00252975 0)
(1.01249 0.00268189 0)
(1.01328 0.00283354 0)
(1.01328 0.00302218 0)
(0.999974 -4.54356e-06 0)
(1.0002 0.000826719 0)
(1.00141 0.000651403 0)
(1.00242 0.000243543 0)
(1.00262 0.00131008 0)
(1.00319 0.00186612 0)
(1.00401 0.00159691 0)
(1.0045 0.00171549 0)
(1.0048 0.00202687 0)
(1.00502 0.00205127 0)
(1.00528 0.00199854 0)
(1.00589 0.00201906 0)
(1.00696 0.00201641 0)
(1.00815 0.00198715 0)
(1.00923 0.00205502 0)
(1.01027 0.00220615 0)
(1.01142 0.0023466 0)
(1.01256 0.00244182 0)
(1.01337 0.00252833 0)
(1.0134 0.00265083 0)
(0.999984 2.36431e-05 0)
(1.00019 0.0007902 0)
(1.00131 0.000853048 0)
(1.00241 0.000453965 0)
(1.00272 0.00135235 0)
(1.00319 0.00203344 0)
(1.00395 0.00187721 0)
(1.00452 0.0018639 0)
(1.00482 0.00211715 0)
(1.005 0.00220104 0)
(1.00525 0.00216645 0)
(1.00587 0.00210851 0)
(1.00694 0.00204117 0)
(1.00815 0.00195882 0)
(1.00927 0.0019696 0)
(1.01033 0.00205382 0)
(1.01147 0.00213933 0)
(1.0126 0.00217752 0)
(1.01341 0.0022024 0)
(1.01347 0.00225938 0)
(0.999989 5.88312e-05 0)
(1.0002 0.000785426 0)
(1.00121 0.00103491 0)
(1.00239 0.00068572 0)
(1.00282 0.0014095 0)
(1.0032 0.0021727 0)
(1.00388 0.00214703 0)
(1.00449 0.00205108 0)
(1.00483 0.00221263 0)
(1.00499 0.00232594 0)
(1.00521 0.00231932 0)
(1.00581 0.00222017 0)
(1.00688 0.00207943 0)
(1.0081 0.00193667 0)
(1.00926 0.00187674 0)
(1.01034 0.00189221 0)
(1.01147 0.00191712 0)
(1.01259 0.00190125 0)
(1.01341 0.00186611 0)
(1.01349 0.00185863 0)
(0.999992 0.000123529 0)
(1.0002 0.000787435 0)
(1.00112 0.00118747 0)
(1.00234 0.000936313 0)
(1.0029 0.00149185 0)
(1.00322 0.00229319 0)
(1.00381 0.00240528 0)
(1.00444 0.00227885 0)
(1.00482 0.00232975 0)
(1.00496 0.00242965 0)
(1.00515 0.0024386 0)
(1.00572 0.00231998 0)
(1.00677 0.00210816 0)
(1.00801 0.00189076 0)
(1.00921 0.0017456 0)
(1.01031 0.00168508 0)
(1.01143 0.00164297 0)
(1.01253 0.00157436 0)
(1.01335 0.00148445 0)
(1.01345 0.00141698 0)
(0.999994 0.000149273 0)
(1.00021 0.000844681 0)
(1.00105 0.00134939 0)
(1.00228 0.00121311 0)
(1.00296 0.00164108 0)
(1.00326 0.00242189 0)
(1.00373 0.0026645 0)
(1.00435 0.00253925 0)
(1.00477 0.00249902 0)
(1.00492 0.0025516 0)
(1.00507 0.00257038 0)
(1.00559 0.00244443 0)
(1.00661 0.00218482 0)
(1.00786 0.00188396 0)
(1.00909 0.00164791 0)
(1.01022 0.00149874 0)
(1.01134 0.0013865 0)
(1.01242 0.00125945 0)
(1.01323 0.0011178 0)
(1.01335 0.000990902 0)
(0.999993 0.000219774 0)
(1.00023 0.000835355 0)
(1.00098 0.00148884 0)
(1.0022 0.0014993 0)
(1.00298 0.00182628 0)
(1.00329 0.00255178 0)
(1.00366 0.00290868 0)
(1.00422 0.0028224 0)
(1.00467 0.00271845 0)
(1.00485 0.0027069 0)
(1.00497 0.00270902 0)
(1.00543 0.00257485 0)
(1.00639 0.00227351 0)
(1.00763 0.00188763 0)
(1.00889 0.0015488 0)
(1.01005 0.00129833 0)
(1.01118 0.00110298 0)
(1.01224 0.000909192 0)
(1.01304 0.000708921 0)
(1.01318 0.000523931 0)
(0.999992 0.000295698 0)
(1.00024 0.000845872 0)
(1.00096 0.00161623 0)
(1.00213 0.00178899 0)
(1.00299 0.0020511 0)
(1.00333 0.00270069 0)
(1.0036 0.00314567 0)
(1.00409 0.00312341 0)
(1.00454 0.00297355 0)
(1.00474 0.00288314 0)
(1.00485 0.00283876 0)
(1.00524 0.00268041 0)
(1.00612 0.00234235 0)
(1.00733 0.00187852 0)
(1.00861 0.00143625 0)
(1.0098 0.0010742 0)
(1.01094 0.000785606 0)
(1.01199 0.000512592 0)
(1.01279 0.000250023 0)
(1.01294 3.63963e-06 0)
(0.999991 0.000333297 0)
(1.00025 0.000966106 0)
(1.00093 0.00176743 0)
(1.00205 0.00208034 0)
(1.00297 0.00231489 0)
(1.00335 0.00287917 0)
(1.00355 0.00337462 0)
(1.00394 0.00343761 0)
(1.00437 0.00326944 0)
(1.00459 0.00311188 0)
(1.00469 0.00300495 0)
(1.005 0.00281686 0)
(1.00579 0.00244145 0)
(1.00695 0.00191125 0)
(1.00823 0.00136263 0)
(1.00945 0.000874487 0)
(1.01061 0.000470269 0)
(1.01166 0.000100394 0)
(1.01244 -0.000244806 0)
(1.01261 -0.000567228 0)
(0.999989 0.000379849 0)
(1.00026 0.00110615 0)
(1.00091 0.00191772 0)
(1.00196 0.00236099 0)
(1.00292 0.00260542 0)
(1.00335 0.00309143 0)
(1.0035 0.0036134 0)
(1.00378 0.00376262 0)
(1.00415 0.00361525 0)
(1.00438 0.00339328 0)
(1.00447 0.00321927 0)