/*--------------------------------*- C++ -*----------------------------------*\
| =========                 |                                                 |
| \\      /  F ield         | OpenFOAM: The Open Source CFD Toolbox           |
|  \\    /   O peration     | Version:  v2012                                 |
|   \\  /    A nd           | Website:  www.openfoam.com                      |
|    \\/     M anipulation  |                                                 |
\*---------------------------------------------------------------------------*/
FoamFile
{
    version     2.0;
    format      ascii;
    class       surfaceScalarField;
    location    "4.8";
    object      phi;
}
// * * * * * * * * * * * * * * * * * * * * * * * * * * * * * * * * * * * * * //

dimensions      [0 3 -1 0 0 0 0];
oriented        oriented;


internalField   nonuniform List<scalar> 
34900
(
1.17076e-06
2.70056e-07
1.15994e-06
-4.53588e-07
1.17027e-06
5.39094e-07
1.14865e-06
-4.91252e-07
1.16262e-06
2.77918e-07
1.14652e-06
-1.30983e-07
1.15598e-06
-5.81522e-08
1.14943e-06
3.9179e-08
1.15943e-06
9.42074e-09
1.1525e-06
3.65315e-08
1.16166e-06
7.89578e-08
1.15288e-06
4.73069e-08
1.16107e-06
8.44861e-08
1.15027e-06
3.98629e-08
1.15781e-06
8.19018e-08
1.14509e-06
3.15329e-08
1.15179e-06
7.77469e-08
1.13783e-06
2.39508e-08
1.13955e-06
8.90278e-08
2.82268e-08
1.10242e-06
1.22376e-06
2.70557e-07
1.21359e-06
-4.43421e-07
1.22064e-06
5.32049e-07
1.20047e-06
-4.71089e-07
1.21169e-06
2.66704e-07
1.19996e-06
-1.19252e-07
1.207e-06
-6.51919e-08
1.20524e-06
4.09381e-08
1.21215e-06
2.50537e-09
1.21027e-06
3.8416e-08
1.2143e-06
7.49275e-08
1.21277e-06
4.88401e-08
1.21278e-06
8.44747e-08
1.21272e-06
3.99197e-08
1.20776e-06
8.68599e-08
1.21094e-06
2.83549e-08
1.19862e-06
9.00669e-08
1.20721e-06
1.53624e-08
1.18177e-06
1.14469e-07
2.41017e-08
1.18589e-06
1.27897e-06
2.74372e-07
1.26939e-06
-4.33847e-07
1.27348e-06
5.27968e-07
1.25634e-06
-4.53953e-07
1.26271e-06
2.60336e-07
1.25798e-06
-1.14519e-07
1.25963e-06
-6.68442e-08
1.26475e-06
3.58197e-08
1.26602e-06
1.23565e-09
1.27143e-06
3.30041e-08
1.26876e-06
7.75917e-08
1.27501e-06
4.25955e-08
1.26825e-06
9.12296e-08
1.27498e-06
3.3197e-08
1.26516e-06
9.66767e-08
1.27164e-06
2.18699e-08
1.26004e-06
1.01674e-07
1.26381e-06
1.15858e-08
1.25132e-06
1.26963e-07
3.77266e-08
1.2377e-06
1.3374e-06
2.81073e-07
1.3291e-06
-4.25541e-07
1.33085e-06
5.26215e-07
1.31837e-06
-4.41473e-07
1.31919e-06
2.59509e-07
1.32201e-06
-1.17338e-07
1.31758e-06
-6.241e-08
1.32722e-06
2.61832e-08
1.32462e-06
3.82971e-09
1.33336e-06
2.42686e-08
1.32863e-06
8.23152e-08
1.33649e-06
3.47366e-08
1.33034e-06
9.73801e-08
1.33587e-06
2.7668e-08
1.32982e-06
1.02724e-07
1.33231e-06
1.93845e-08
1.32711e-06
1.06868e-07
1.32478e-06
1.39245e-08
1.31971e-06
1.32032e-07
5.52375e-08
1.3022e-06
1.40009e-06
2.89337e-07
1.39322e-06
-4.18668e-07
1.39401e-06
5.25421e-07
1.38623e-06
-4.33688e-07
1.38328e-06
2.62456e-07
1.39095e-06
-1.25005e-07
1.38298e-06
-5.44432e-08
1.39293e-06
1.62291e-08
1.3899e-06
6.86768e-09
1.39764e-06
1.65192e-08
1.39476e-06
8.52036e-08
1.40062e-06
2.88694e-08
1.3978e-06
1.00208e-07
1.40068e-06
2.47834e-08
1.39825e-06
1.05157e-07
1.39833e-06
1.92992e-08
1.39598e-06
1.09221e-07
1.39163e-06
1.82773e-08
1.38862e-06
1.35041e-07
7.26291e-08
1.37123e-06
1.46768e-06
2.97333e-07
1.46187e-06
-4.12859e-07
1.46317e-06
5.24124e-07
1.45879e-06
-4.29315e-07
1.45488e-06
2.66368e-07
1.46363e-06
-1.33753e-07
1.45532e-06
-4.61272e-08
1.46286e-06
8.68743e-09
1.46108e-06
8.64239e-09
1.4664e-06
1.1197e-08
1.4658e-06
8.5812e-08
1.46967e-06
2.50002e-08
1.46906e-06
1.00813e-07
1.47062e-06
2.32246e-08
1.46979e-06
1.05986e-07
1.46908e-06
2.0012e-08
1.4679e-06
1.10402e-07
1.46242e-06
2.37497e-08
1.46094e-06
1.36527e-07
8.99604e-08
1.44361e-06
1.54013e-06
3.03424e-07
1.53483e-06
-4.07562e-07
1.53752e-06
5.21436e-07
1.53492e-06
-4.26716e-07
1.53216e-06
2.69129e-07
1.53938e-06
-1.40976e-07
1.5324e-06
-3.91458e-08
1.5371e-06
3.98973e-09
1.53629e-06
9.44947e-09
1.53971e-06
7.78007e-09
1.54026e-06
8.52563e-08
1.54306e-06
2.22017e-08
1.54339e-06
1.0048e-07
1.54446e-06
2.2161e-08
1.54443e-06
1.0601e-07
1.54318e-06
2.12606e-08
1.54303e-06
1.10556e-07
1.53638e-06
3.04036e-08
1.53634e-06
1.36559e-07
1.06914e-07
1.51939e-06
1.61677e-06
3.06787e-07
1.61162e-06
-4.02417e-07
1.61581e-06
5.17242e-07
1.61373e-06
-4.24636e-07
1.6129e-06
2.69962e-07
1.61774e-06
-1.45813e-07
1.61226e-06
-3.36662e-08
1.61489e-06
1.3594e-09
1.61426e-06
1.00809e-08
1.61655e-06
5.48251e-09
1.61741e-06
8.4402e-08
1.61965e-06
1.99635e-08
1.6204e-06
9.973e-08
1.62112e-06
2.14329e-08
1.6218e-06
1.05336e-07
1.61991e-06
2.31504e-08
1.62083e-06
1.09634e-07
1.61305e-06
3.81888e-08
1.61418e-06
1.35425e-07
1.22919e-07
1.59818e-06
1.69681e-06
3.07553e-07
1.69174e-06
-3.97351e-07
1.69709e-06
5.11898e-07
1.6948e-06
-4.22351e-07
1.69578e-06
2.6899e-07
1.69848e-06
-1.4852e-07
1.69413e-06
-2.93112e-08
1.69556e-06
-7.5774e-11
1.69475e-06
1.08951e-08
1.69636e-06
3.86763e-09
1.69721e-06
8.35504e-08
1.69901e-06
1.81678e-08
1.70008e-06
9.86604e-08
1.70039e-06
2.1119e-08
1.70181e-06
1.0392e-07
1.69917e-06
2.57933e-08
1.70114e-06
1.07659e-07
1.69241e-06
4.69248e-08
1.6943e-06
1.33526e-07
1.3744e-07
1.67978e-06
1.77985e-06
3.06425e-07
1.77494e-06
-3.92441e-07
1.78103e-06
5.05807e-07
1.77818e-06
-4.19503e-07
1.78059e-06
2.66583e-07
1.78172e-06
-1.49654e-07
1.77822e-06
-2.58098e-08
1.77903e-06
-8.87518e-10
1.77813e-06
1.17973e-08
1.77925e-06
2.7481e-09
1.78012e-06
8.26767e-08
1.78145e-06
1.68402e-08
1.78288e-06
9.72285e-08
1.78265e-06
2.13524e-08
1.78485e-06
1.01722e-07
1.78138e-06
2.92651e-08
1.78427e-06
1.04763e-07
1.77486e-06
5.63372e-08
1.77704e-06
1.31348e-07
1.50042e-07
1.76444e-06
1.866e-06
3.04176e-07
1.8613e-06
-3.87742e-07
1.8679e-06
4.99208e-07
1.86431e-06
-4.15912e-07
1.86786e-06
2.63028e-07
1.86785e-06
-1.49642e-07
1.86515e-06
-2.31074e-08
1.86563e-06
-1.36981e-09
1.86492e-06
1.25086e-08
1.86564e-06
2.02775e-09
1.86669e-06
8.16237e-08
1.8675e-06
1.60309e-08
1.86938e-06
9.53454e-08
1.86848e-06
2.22566e-08
1.87146e-06
9.8737e-08
1.86715e-06
3.35767e-08
1.87072e-06
1.01199e-07
1.86098e-06
6.60716e-08
1.8629e-06
1.29426e-07
1.60419e-07
1.85253e-06
1.95567e-06
3.01346e-07
1.95115e-06
-3.83219e-07
1.95819e-06
4.92168e-07
1.95377e-06
-4.11494e-07
1.95832e-06
2.58481e-07
1.95737e-06
-1.48692e-07
1.95551e-06
-2.12509e-08
1.95577e-06
-1.62752e-09
1.95552e-06
1.27582e-08
1.95589e-06
1.65616e-09
1.95731e-06
8.02001e-08
1.95756e-06
1.57826e-08
1.96e-06
9.29095e-08
1.95835e-06
2.39086e-08
1.96206e-06
9.5019e-08
1.957e-06
3.86398e-08
1.96088e-06
9.73201e-08
1.95123e-06
7.5723e-08
1.95241e-06
1.28243e-07
1.68448e-07
1.94438e-06
2.04933e-06
2.98204e-07
2.04488e-06
-3.78766e-07
2.05239e-06
4.84656e-07
2.04712e-06
-4.06226e-07
2.05259e-06
2.53011e-07
2.05076e-06
-1.46866e-07
2.0498e-06
-2.02898e-08
2.04981e-06
-1.63539e-09
2.05022e-06
1.23536e-08
2.05024e-06
1.63521e-09
2.0522e-06
7.82331e-08
2.05186e-06
1.6124e-08
2.05494e-06
8.98348e-08
2.05253e-06
2.63122e-08
2.05687e-06
9.06848e-08
2.05125e-06
4.42519e-08
2.05504e-06
9.35385e-08
2.04587e-06
8.4885e-08
2.04599e-06
1.28129e-07
1.74213e-07
2.04022e-06
2.14737e-06
2.94838e-07
2.14285e-06
-3.74246e-07
2.1509e-06
4.76603e-07
2.14479e-06
-4.00112e-07
2.15115e-06
2.46647e-07
2.14845e-06
-1.4416e-07
2.14841e-06
-2.02518e-08
2.14806e-06
-1.28451e-09
2.14923e-06
1.11774e-08
2.14885e-06
2.01766e-09
2.15149e-06
7.55955e-08
2.15055e-06
1.70665e-08
2.1543e-06
8.60804e-08
2.15123e-06
2.93825e-08
2.15599e-06
8.59249e-08
2.15013e-06
5.01157e-08
2.1534e-06
9.02648e-08
2.14508e-06
9.32035e-08
2.14398e-06
1.2923e-07
1.77979e-07
2.14021e-06
2.25008e-06
2.91251e-07
2.24535e-06
-3.69525e-07
2.25402e-06
4.67933e-07
2.24707e-06
-3.9316e-07
2.25434e-06
2.39385e-07
2.25073e-06
-1.40554e-07
2.25164e-06
-2.11594e-08
2.25078e-06
-4.27446e-10
2.2528e-06
9.16089e-09
2.25193e-06
2.88436e-09
2.25531e-06
7.22152e-08
2.25378e-06
1.85922e-08
2.25819e-06
8.16777e-08
2.25463e-06
3.29417e-08
2.25955e-06
8.09991e-08
2.25378e-06
5.58887e-08
2.25619e-06
8.78526e-08
2.24897e-06
1.00424e-07
2.2467e-06
1.31505e-07
1.80144e-07
2.24453e-06
2.35771e-06
2.87421e-07
2.35267e-06
-3.64486e-07
2.36203e-06
4.58572e-07
2.35423e-06
-3.85362e-07
2.36242e-06
2.31194e-07
2.35788e-06
-1.36014e-07
2.35977e-06
-2.30485e-08
2.35826e-06
1.08397e-09
2.36116e-06
6.26267e-09
2.35973e-06
4.30866e-09
2.36386e-06
6.80821e-08
2.36183e-06
2.06318e-08
2.36676e-06
7.67476e-08
2.36297e-06
3.67263e-08
2.36775e-06
7.62165e-08
2.3624e-06
6.12465e-08
2.36371e-06
8.65387e-08
2.35769e-06
1.06442e-07
2.35445e-06
1.34749e-07
1.81166e-07
2.35343e-06
2.47049e-06
2.83323e-07
2.46504e-06
-3.5903e-07
2.47516e-06
4.48449e-07
2.46649e-06
-3.76688e-07
2.47566e-06
2.22018e-07
2.47015e-06
-1.30498e-07
2.47307e-06
-2.59725e-08
2.47078e-06
3.37421e-09
2.47458e-06
2.46368e-09
2.47256e-06
6.32383e-09
2.47739e-06
6.32551e-08
2.47498e-06
2.3042e-08
2.48022e-06
7.15043e-08
2.47654e-06
4.04116e-08
2.48086e-06
7.18959e-08
2.47617e-06
6.59411e-08
2.4763e-06
8.64012e-08
2.47141e-06
1.11332e-07
2.46754e-06
1.38626e-07
1.81511e-07
2.46719e-06
2.58868e-06
2.78932e-07
2.58273e-06
-3.53072e-07
2.59369e-06
4.37488e-07
2.58409e-06
-3.6709e-07
2.59433e-06
2.11779e-07
2.58778e-06
-1.23949e-07
2.5918e-06
-2.99916e-08
2.58865e-06
6.52677e-09
2.59333e-06
-2.22188e-09
2.59076e-06
8.89568e-09
2.59614e-06
5.78735e-08
2.59359e-06
2.55931e-08
2.59886e-06
6.62352e-08
2.59561e-06
4.36611e-08
2.5992e-06
6.83055e-08
2.5953e-06
6.98461e-08
2.59435e-06
8.73506e-08
2.59036e-06
1.15315e-07
2.58625e-06
1.42742e-07
1.81598e-07
2.58616e-06
2.71253e-06
2.74227e-07
2.706e-06
-3.46534e-07
2.71788e-06
4.25605e-07
2.70729e-06
-3.565e-07
2.71868e-06
2.00387e-07
2.71104e-06
-1.16309e-07
2.71621e-06
-3.51572e-08
2.71216e-06
1.05734e-08
2.71767e-06
-7.72843e-09
2.71466e-06
1.19025e-08
2.72037e-06
5.21626e-08
2.71799e-06
2.79752e-08
2.72296e-06
6.12618e-08
2.72044e-06
4.61838e-08
2.72314e-06
6.56065e-08
2.72e-06
7.29849e-08
2.71818e-06
8.91734e-08
2.71483e-06
1.1866e-07
2.71083e-06
1.46739e-07
1.81743e-07
2.71069e-06
2.84231e-06
2.69184e-07
2.83511e-06
-3.39332e-07
2.84801e-06
4.12704e-07
2.83635e-06
-3.44845e-07
2.84899e-06
1.87752e-07
2.84021e-06
-1.0753e-07
2.84655e-06
-4.14925e-08
2.84164e-06
1.54797e-08
2.84783e-06
-1.39164e-08
2.84461e-06
1.51199e-08
2.85034e-06
4.6435e-08
2.84849e-06
2.98248e-08
2.85287e-06
5.68813e-08
2.85125e-06
4.78026e-08
2.85306e-06
6.37994e-08
2.85051e-06
7.55296e-08
2.84808e-06
9.16075e-08
2.84515e-06
1.21592e-07
2.84152e-06
1.50367e-07
1.82121e-07
2.84114e-06
2.9783e-06
2.63782e-07
2.97034e-06
-3.31379e-07
2.98437e-06
3.98677e-07
2.97157e-06
-3.32044e-07
2.98553e-06
1.73792e-07
2.97559e-06
-9.75889e-08
2.98307e-06
-4.89717e-08
2.97742e-06
2.11296e-08
2.98406e-06
-2.05552e-08
2.98096e-06
1.82198e-08
2.98633e-06
4.10652e-08
2.98537e-06
3.07819e-08
2.98895e-06
5.33004e-08
2.98825e-06
4.85033e-08
2.98935e-06
6.27045e-08
2.98712e-06
7.77576e-08
2.9843e-06
9.44303e-08
2.98165e-06
1.24242e-07
2.97852e-06
1.53491e-07
1.82777e-07
2.97787e-06
3.12079e-06
2.57996e-07
3.11199e-06
-3.22577e-07
3.12726e-06
3.83405e-07
3.11324e-06
-3.18026e-07
3.12858e-06
1.58452e-07
3.1175e-06
-8.65104e-08
3.12603e-06
-5.74977e-08
3.11985e-06
2.73071e-08
3.12661e-06
-2.73084e-08
3.12405e-06
2.07792e-08
3.12865e-06
3.64578e-08
3.12889e-06
3.05491e-08
3.13161e-06
5.05789e-08
3.13167e-06
4.84375e-08
3.13238e-06
6.20032e-08
3.13017e-06
7.9959e-08
3.12707e-06
9.75325e-08
3.1246e-06
1.26711e-07
3.12207e-06
1.56028e-07
1.83667e-07
3.12118e-06
3.2701e-06
2.51806e-07
3.26035e-06
-3.12823e-07
3.27698e-06
3.66769e-07
3.2617e-06
-3.02739e-07
3.27843e-06
1.41718e-07
3.2663e-06
-7.43866e-08
3.27569e-06
-6.68812e-08
3.26931e-06
3.36812e-08
3.27574e-06
-3.37343e-08
3.27421e-06
2.23132e-08
3.27767e-06
3.29963e-08
3.27927e-06
2.89446e-08
3.28124e-06
4.86108e-08
3.28182e-06
4.78601e-08
3.2825e-06
6.13224e-08
3.28015e-06
8.23082e-08
3.27666e-06
1.01022e-07
3.27412e-06
1.29251e-07
3.27243e-06
1.5772e-07
1.84825e-07
3.27127e-06
3.42654e-06
2.45193e-07
3.41574e-06
-3.02015e-07
3.43385e-06
3.48661e-07
3.41728e-06
-2.8617e-07
3.43535e-06
1.23644e-07
3.42237e-06
-6.14061e-08
3.4323e-06
-7.68128e-08
3.42619e-06
3.97958e-08
3.43175e-06
-3.92954e-08
3.43176e-06
2.23049e-08
3.43376e-06
3.09938e-08
3.43676e-06
2.59418e-08
3.43822e-06
4.71521e-08
3.43904e-06
4.70399e-08
3.44012e-06
6.02396e-08
3.43789e-06
8.45408e-08
3.43336e-06
1.05555e-07
3.42992e-06
1.32692e-07
3.4293e-06
1.58338e-07
1.86205e-07
3.42792e-06
3.59046e-06
2.38142e-07
3.57851e-06
-2.90063e-07
3.59817e-06
3.29003e-07
3.58036e-06
-2.68365e-07
3.59964e-06
1.04368e-07
3.5861e-06
-4.78684e-08
3.59616e-06
-8.68688e-08
3.59085e-06
4.5105e-08
3.59499e-06
-4.3442e-08
3.59695e-06
2.03496e-08
3.5974e-06
3.05397e-08
3.60157e-06
2.17729e-08
3.60295e-06
4.57749e-08
3.60374e-06
4.6253e-08
3.60575e-06
5.8228e-08
3.60673e-06
8.35644e-08
3.60754e-06
1.04743e-07
3.60199e-06
1.3824e-07
3.58677e-06
1.73558e-07
1.8273e-07
3.59024e-06
3.7622e-06
2.30649e-07
3.74904e-06
-2.769e-07
3.77027e-06
3.07773e-07
3.75135e-06
-2.49452e-07
3.77159e-06
8.41312e-08
3.75792e-06
-3.41943e-08
3.76758e-06
-9.65339e-08
3.76364e-06
4.90504e-08
3.76592e-06
-4.57277e-08
3.76996e-06
1.63121e-08
3.76915e-06
3.1347e-08
3.77392e-06
1.70067e-08
3.77594e-06
4.37512e-08
3.77662e-06
4.55761e-08
3.77996e-06
5.48907e-08
3.78522e-06
7.82991e-08
3.79094e-06
9.90267e-08
3.80008e-06
1.29093e-07
3.81334e-06
1.60298e-07
2.05484e-07
3.79059e-06
3.94212e-06
2.22718e-07
3.92772e-06
-2.62501e-07
3.95046e-06
2.85036e-07
3.93068e-06
-2.29677e-07
3.95151e-06
6.33011e-08
3.93824e-06
-2.09263e-08
3.94693e-06
-1.05226e-07
3.94488e-06
5.11035e-08
3.94502e-06
-4.58649e-08
3.951e-06
1.03342e-08
3.94947e-06
3.28729e-08
3.95418e-06
1.22943e-08
3.95757e-06
4.03651e-08
3.95933e-06
4.38205e-08
3.9626e-06
5.16141e-08
3.95624e-06
8.4661e-08
3.94536e-06
1.09911e-07
3.93952e-06
1.34932e-07
3.93152e-06
1.68293e-07
1.98333e-07
3.93867e-06
4.1306e-06
2.14368e-07
4.115e-06
-2.46896e-07
4.13906e-06
2.6097e-07
4.11879e-06
-2.09409e-07
4.13975e-06
4.23483e-08
4.12749e-06
-8.67554e-09
4.13467e-06
-1.12401e-07
4.13485e-06
5.09201e-08
4.13286e-06
-4.3875e-08
4.1403e-06
2.89505e-09
4.13882e-06
3.43567e-08
4.14296e-06
8.14796e-09
4.14604e-06
3.72902e-08
4.14049e-06
4.93704e-08
4.13399e-06
5.81111e-08
4.13186e-06
8.67909e-08
4.12808e-06
1.13697e-07
4.12369e-06
1.39323e-07
4.1218e-06
1.70181e-07
1.93905e-07
4.12623e-06
4.32804e-06
2.05635e-07
4.31133e-06
-2.30189e-07
4.3364e-06
2.35896e-07
4.31615e-06
-1.89154e-07
4.33668e-06
2.18204e-08
4.32606e-06
1.9381e-09
4.33131e-06
-1.17644e-07
4.3338e-06
4.84303e-08
4.33001e-06
-4.00934e-08
4.33822e-06
-5.31249e-09
4.33685e-06
3.57288e-08
4.33656e-06
8.43745e-09
4.33568e-06
3.81727e-08
4.32974e-06
5.53097e-08
4.32616e-06
6.16901e-08
4.32423e-06
8.872e-08
4.32083e-06
1.17101e-07
4.31798e-06
1.42173e-07
4.31893e-06
1.69229e-07
1.90187e-07
4.32265e-06
4.53484e-06
1.96572e-07
4.51722e-06
-2.12576e-07
4.54282e-06
2.10301e-07
4.52321e-06
-1.6955e-07
4.54273e-06
2.30111e-09
4.53432e-06
1.03533e-08
4.53741e-06
-1.2074e-07
4.54199e-06
4.38583e-08
4.53691e-06
-3.50149e-08
4.5443e-06
-1.27053e-08
4.54106e-06
3.8967e-08
4.53687e-06
1.26271e-08
4.53715e-06
3.78943e-08
4.53173e-06
6.07306e-08
4.52777e-06
6.56537e-08
4.52628e-06
9.02111e-08
4.52362e-06
1.19755e-07
4.52171e-06
1.44086e-07
4.52432e-06
1.6662e-07
1.87269e-07
4.52723e-06
4.75143e-06
1.87253e-07
4.7332e-06
-1.94341e-07
4.75868e-06
1.84823e-07
4.74043e-06
-1.51303e-07
4.75843e-06
-1.57025e-08
4.75256e-06
1.62293e-08
4.75363e-06
-1.21814e-07
4.7597e-06
3.77874e-08
4.75342e-06
-2.87286e-08
4.75774e-06
-1.70302e-08
4.75356e-06
4.31468e-08
4.74795e-06
1.82415e-08
4.74857e-06
3.72732e-08
4.74416e-06
6.51368e-08
4.73958e-06
7.02307e-08
4.73827e-06
9.15242e-08
4.73649e-06
1.21539e-07
4.73553e-06
1.45048e-07
4.73785e-06
1.64296e-07
1.84073e-07
4.74105e-06
4.97828e-06
1.77768e-07
4.9598e-06
-1.75858e-07
4.98439e-06
1.60231e-07
4.96821e-06
-1.35116e-07
4.98435e-06
-3.18478e-08
4.98108e-06
1.94955e-08
4.98049e-06
-1.2122e-07
4.98704e-06
3.12396e-08
4.97861e-06
-2.03022e-08
4.97991e-06
-1.83316e-08
4.97644e-06
4.66231e-08
4.96975e-06
2.49281e-08
4.97034e-06
3.66847e-08
4.96711e-06
6.83649e-08
4.96213e-06
7.52147e-08
4.96068e-06
9.29682e-08
4.95982e-06
1.22402e-07
4.95975e-06
1.45122e-07
4.96136e-06
1.62682e-07
1.80412e-07
4.96502e-06
5.21587e-06
1.68217e-07
5.19757e-06
-1.57564e-07
5.22047e-06
1.37335e-07
5.20689e-06
-1.21541e-07
5.22113e-06
-4.60893e-08
5.22032e-06
2.03128e-08
5.2183e-06
-1.192e-07
5.22411e-06
2.54223e-08
5.21259e-06
-8.77718e-09
5.21234e-06
-1.80796e-08
5.21016e-06
4.87999e-08
5.20288e-06
3.2209e-08
5.20292e-06
3.66424e-08
5.20089e-06
7.03934e-08
5.19585e-06
8.02621e-08
5.19405e-06
9.47677e-08
5.19413e-06
1.22319e-07
5.19463e-06
1.44622e-07
5.19604e-06
1.61269e-07
1.76588e-07
5.19987e-06
5.4647e-06
1.58706e-07
5.44706e-06
-1.39919e-07
5.46758e-06
1.16807e-07
5.45671e-06
-1.10668e-07
5.46947e-06
-5.88536e-08
5.47067e-06
1.91211e-08
5.46736e-06
-1.15896e-07
5.47039e-06
2.23907e-08
5.45744e-06
4.17676e-09
5.45594e-06
-1.65835e-08
5.45526e-06
4.94809e-08
5.4478e-06
3.9672e-08
5.44685e-06
3.75951e-08
5.44592e-06
7.13167e-08
5.44119e-06
8.49976e-08
5.43897e-06
9.6988e-08
5.43983e-06
1.21459e-07
5.44076e-06
1.43691e-07
5.44234e-06
1.59693e-07
1.72726e-07
5.4462e-06
5.72533e-06
1.4933e-07
5.70879e-06
-1.23376e-07
5.72654e-06
9.90577e-08
5.71787e-06
-1.02001e-07
5.72969e-06
-7.06665e-08
5.73137e-06
1.74357e-08
5.72412e-06
-1.08647e-07
5.72655e-06
1.996e-08
5.71416e-06
1.65726e-08
5.71158e-06
-1.40063e-08
5.71218e-06
4.88783e-08
5.70495e-06
4.69086e-08
5.70278e-06
3.9766e-08
5.70267e-06
7.14248e-08
5.69862e-06
8.90469e-08
5.69608e-06
9.95288e-08
5.69737e-06
1.20162e-07
5.69878e-06
1.42285e-07
5.70069e-06
1.57779e-07
1.68835e-07
5.70459e-06
5.99836e-06
1.40165e-07
5.98336e-06
-1.0838e-07
5.9982e-06
8.4215e-08
5.99052e-06
-9.43173e-08
6.00014e-06
-8.02914e-08
5.9998e-06
1.77816e-08
5.99083e-06
-9.9674e-08
5.99487e-06
1.59191e-08
5.98384e-06
2.75951e-08
5.97977e-06
-9.93287e-09
5.98139e-06
4.72562e-08
5.97477e-06
5.35364e-08
5.97139e-06
4.31389e-08
5.97168e-06
7.11385e-08
5.96859e-06
9.21343e-08
5.96599e-06
1.02134e-07
5.96735e-06
1.18801e-07
5.96928e-06
1.40355e-07
5.97163e-06
1.55422e-07
1.64876e-07
5.97559e-06
6.28439e-06
1.31261e-07
6.27124e-06
-9.52298e-08
6.28344e-06
7.20132e-08
6.27498e-06
-8.58539e-08
6.28208e-06
-8.73917e-08
6.28234e-06
1.75177e-08
6.2721e-06
-8.94258e-08
6.27638e-06
1.16336e-08
6.26686e-06
3.71127e-08
6.26118e-06
-4.25322e-09
6.26341e-06
4.50353e-08
6.25774e-06
5.92015e-08
6.25335e-06
4.75292e-08
6.25362e-06
7.08713e-08
6.25158e-06
9.41756e-08
6.24925e-06
1.04457e-07
6.25039e-06
1.17662e-07
6.25283e-06
1.37918e-07
6.2557e-06
1.52556e-07
1.6079e-07
6.25978e-06
6.58409e-06
1.22641e-07
6.5729e-06
-8.40399e-08
6.58294e-06
6.19732e-08
6.57276e-06
-7.56743e-08
6.57821e-06
-9.28401e-08
6.57934e-06
1.63894e-08
6.56775e-06
-7.78421e-08
6.57148e-06
7.90394e-09
6.56366e-06
4.49361e-08
6.55655e-06
2.85124e-09
6.55882e-06
4.27693e-08
6.55439e-06
6.36333e-08
6.5493e-06
5.26211e-08
6.54922e-06
7.09455e-08
6.54814e-06
9.52593e-08
6.5464e-06
1.06196e-07
6.54722e-06
1.16838e-07
6.55006e-06
1.3508e-07
6.55346e-06
1.49159e-07
1.56511e-07
6.55774e-06
6.89813e-06
1.143e-07
6.88875e-06
-7.46549e-08
6.89732e-06
5.34009e-08
6.88544e-06
-6.3792e-08
6.88881e-06
-9.62095e-08
6.89083e-06
1.43623e-08
6.87809e-06
-6.50952e-08
6.88078e-06
5.20604e-09
6.87477e-06
5.09468e-08
6.86658e-06
1.10415e-08
6.86835e-06
4.09976e-08
6.86524e-06
6.67463e-08
6.85986e-06
5.79985e-08
6.85925e-06
7.1558e-08
6.85895e-06
9.5566e-08
6.85795e-06
1.07194e-07
6.85856e-06
1.16227e-07
6.86165e-06
1.31985e-07
6.86556e-06
1.45255e-07
1.51973e-07
6.87009e-06
7.22722e-06
1.06212e-07
7.21929e-06
-6.67162e-08
7.22722e-06
4.54628e-08
7.21379e-06
-5.03543e-08
7.21478e-06
-9.72035e-08
7.21739e-06
1.17552e-08
7.20367e-06
-5.13801e-08
7.20498e-06
3.90025e-09
7.20078e-06
5.51476e-08
7.19198e-06
1.98365e-08
7.1928e-06
4.01786e-08
7.1909e-06
6.86457e-08
7.18566e-06
6.32426e-08
7.18446e-06
7.27535e-08
7.18474e-06
9.52913e-08
7.18447e-06
1.0746e-07
7.18508e-06
1.15619e-07
7.18831e-06
1.28756e-07
7.19266e-06
1.40906e-07
1.47126e-07
7.1975e-06
7.5721e-06
9.83334e-08
7.56529e-06
-5.99063e-08
7.57315e-06
3.76076e-08
7.55871e-06
-3.5919e-08
7.55713e-06
-9.56155e-08
7.55963e-06
9.2506e-09
7.54516e-06
-3.69053e-08
7.54487e-06
4.19082e-09
7.5423e-06
5.77149e-08
7.53342e-06
2.87171e-08
7.53302e-06
4.05777e-08
7.53204e-06
6.96191e-08
7.52729e-06
6.80018e-08
7.52561e-06
7.44312e-08
7.52629e-06
9.46125e-08
7.52666e-06
1.07082e-07
7.52748e-06
1.14804e-07
7.53077e-06
1.25459e-07
7.53548e-06
1.36198e-07
1.41944e-07
7.54066e-06
7.93353e-06
9.0611e-08
7.92754e-06
-5.39083e-08
7.93562e-06
2.95186e-08
7.92156e-06
-2.18554e-08
7.91688e-06
-9.09328e-08
7.91814e-06
7.98902e-09
7.90327e-06
-2.20362e-08
7.9013e-06
6.1592e-09
7.90005e-06
5.89652e-08
7.89155e-06
3.72198e-08
7.88987e-06
4.22614e-08
7.88944e-06
7.00422e-08
7.88538e-06
7.20607e-08
7.88343e-06
7.63813e-08
7.88437e-06
9.36742e-08
7.8853e-06
1.06155e-07
7.88646e-06
1.13639e-07
7.88982e-06
1.22107e-07
7.89479e-06
1.31226e-07
1.36424e-07
7.90031e-06
8.31229e-06
8.30037e-08
8.30692e-06
-4.85359e-08
8.31796e-06
1.84718e-08
8.30505e-06
-8.94656e-09
8.29493e-06
-8.08064e-08
8.29352e-06
9.40123e-09
8.27881e-06
-7.3318e-09
8.2752e-06
9.77375e-09
8.2748e-06
5.93591e-08
8.26705e-06
4.49748e-08
8.2642e-06
4.51117e-08
8.26396e-06
7.02775e-08
8.26067e-06
7.53562e-08
8.25867e-06
7.83733e-08
8.25979e-06
9.25551e-08
8.26119e-06
1.04757e-07
8.26278e-06
1.12053e-07
8.26621e-06
1.18675e-07
8.27136e-06
1.26071e-07
1.30592e-07
8.2772e-06
8.7092e-06
7.5468e-08
8.70575e-06
-4.50844e-08
8.7218e-06
2.41928e-09
8.71276e-06
9.41116e-11
8.69107e-06
-5.91143e-08
8.68655e-06
1.39219e-08
8.67273e-06
6.47908e-09
8.66749e-06
1.50216e-08
8.66736e-06
5.94868e-08
8.6606e-06
5.17322e-08
8.65684e-06
4.88689e-08
8.65651e-06
7.06147e-08
8.65394e-06
7.79252e-08
8.65209e-06
8.02218e-08
8.65339e-06
9.12569e-08
8.65519e-06
1.02957e-07
8.65723e-06
1.10008e-07
8.66078e-06
1.15132e-07
8.66605e-06
1.20796e-07
1.245e-07
8.67214e-06
9.12501e-06
6.80781e-08
9.12988e-06
-4.99545e-08
9.14862e-06
-1.63264e-08
9.12841e-06
2.031e-08
9.10334e-06
-3.40448e-08
9.09856e-06
1.86998e-08
9.08608e-06
1.89617e-08
9.07915e-06
2.19494e-08
9.07867e-06
5.99653e-08
9.07298e-06
5.74247e-08
9.06868e-06
5.31724e-08
9.06803e-06
7.12603e-08
9.06609e-06
7.98656e-08
9.06451e-06
8.18073e-08
9.06596e-06
8.98032e-08
9.06814e-06
1.00773e-07
9.07067e-06
1.07485e-07
9.07436e-06
1.11439e-07
9.07971e-06
1.15444e-07
1.18217e-07
9.08599e-06
9.56048e-06
6.10543e-08
9.55881e-06
-4.82827e-08
9.55839e-06
-1.59063e-08
9.54863e-06
3.00718e-08
9.53393e-06
-1.93491e-08
9.53072e-06
2.19187e-08
9.51972e-06
2.99529e-08
9.5111e-06
3.05738e-08
9.50983e-06
6.12362e-08
9.50509e-06
6.21613e-08
9.50063e-06
5.76299e-08
9.49963e-06
7.22619e-08
9.49817e-06
8.13264e-08
9.49695e-06
8.30345e-08
9.49845e-06
8.82968e-08
9.50107e-06
9.81592e-08
9.50407e-06
1.04485e-07
9.50795e-06
1.07555e-07
9.51334e-06
1.10054e-07
1.11797e-07
9.51976e-06
1.00165e-05
5.46615e-08
9.99627e-06
-2.80229e-08
9.99941e-06
-1.90436e-08
9.99929e-06
3.01892e-08
9.98618e-06
-6.23751e-09
9.98333e-06
2.47604e-08
9.97409e-06
3.91936e-08
9.9643e-06
4.03681e-08
9.96179e-06
6.37498e-08
9.95776e-06
6.61886e-08
9.95346e-06
6.19281e-08
9.95219e-06
7.35346e-08
9.95108e-06
8.24358e-08
9.95019e-06
8.39199e-08
9.95175e-06
8.67431e-08
9.95478e-06
9.5122e-08
9.95828e-06
1.00988e-07
9.96242e-06
1.03412e-07
9.96785e-06
1.04628e-07
1.05278e-07
9.97437e-06
1.04945e-05
4.88186e-08
1.04674e-05
-9.02216e-10
1.0476e-05
-2.76594e-08
1.04762e-05
2.99291e-08
1.04605e-05
9.46991e-09
1.04571e-05
2.82143e-08
1.04498e-05
4.64369e-08
1.04396e-05
5.05649e-08
1.04356e-05
6.77873e-08
1.04319e-05
6.98999e-08
1.0428e-05
6.58266e-08
1.04265e-05
7.4978e-08
1.04257e-05
8.32982e-08
1.04251e-05
8.44672e-08
1.04267e-05
8.51429e-08
1.04301e-05
9.17278e-08
1.04341e-05
9.69788e-08
1.04386e-05
9.89245e-08
1.04441e-05
9.91176e-08
9.87351e-08
1.04507e-05
1.09964e-05
4.24559e-08
1.10149e-05
-1.9394e-08
1.10042e-05
-1.69862e-08
1.09779e-05
5.62245e-08
1.09575e-05
2.9827e-08
1.09535e-05
3.22682e-08
1.0948e-05
5.18857e-08
1.0938e-05
6.05948e-08
1.09324e-05
7.33798e-08
1.09285e-05
7.37915e-08
1.0925e-05
6.93233e-08
1.09236e-05
7.64555e-08
1.09229e-05
8.39449e-08
1.09227e-05
8.47094e-08
1.09243e-05
8.35282e-08
1.0928e-05
8.80516e-08
1.09325e-05
9.24421e-08
1.09374e-05
9.39989e-08
1.09431e-05
9.34366e-08
9.21866e-08
1.09496e-05
1.15202e-05
3.76587e-08
1.14968e-05
3.96078e-09
1.15006e-05
-2.07745e-08
1.15003e-05
5.65387e-08
1.14818e-05
4.83223e-08
1.14742e-05
3.98394e-08
1.14695e-05
5.65544e-08
1.14604e-05
6.97841e-08
1.14536e-05
8.01325e-08
1.14492e-05
7.81815e-08
1.1446e-05
7.25106e-08
1.14447e-05
7.77933e-08
1.14444e-05
8.42653e-08
1.14445e-05
8.45672e-08
1.1446e-05
8.20831e-08
1.14499e-05
8.41481e-08
1.14549e-05
8.7407e-08
1.14603e-05
8.85976e-08
1.14662e-05
8.75477e-08
8.55765e-08
1.14728e-05
1.20704e-05
3.30941e-08
1.20528e-05
2.15069e-08
1.20448e-05
-1.27332e-08
1.20468e-05
5.45177e-08
1.20312e-05
6.39525e-08
1.20206e-05
5.04084e-08
1.20158e-05
6.13979e-08
1.20077e-05
7.79033e-08
1.20001e-05
8.76637e-08
1.19949e-05
8.33755e-08
1.19917e-05
7.57377e-08
1.19906e-05
7.88952e-08
1.19906e-05
8.42209e-08
1.19912e-05
8.39931e-08
1.19925e-05
8.07647e-08
1.19965e-05
8.01682e-08
1.2002e-05
8.18971e-08
1.2008e-05
8.26774e-08
1.20141e-05
8.1362e-08
7.88339e-08
1.20209e-05
1.26463e-05
2.94121e-08
1.26278e-05
4.00065e-08
1.26201e-05
-5.05204e-09
1.26207e-05
5.38923e-08
1.26062e-05
7.84419e-08
1.25935e-05
6.31626e-08
1.25878e-05
6.70931e-08
1.25807e-05
8.4976e-08
1.25729e-05
9.5459e-08
1.25668e-05
8.94578e-08
1.25633e-05
7.92881e-08
1.25624e-05
7.97322e-08
1.25629e-05
8.37756e-08
1.25638e-05
8.31307e-08
1.25654e-05
7.91099e-08
1.25692e-05
7.64032e-08
1.25751e-05
7.59992e-08
1.25815e-05
7.62652e-08
1.2588e-05
7.47969e-08
7.19294e-08
1.25949e-05
1.32499e-05
2.64207e-08
1.32435e-05
4.64075e-08
1.32295e-05
8.9397e-09
1.32226e-05
6.08485e-08
1.32084e-05
9.26021e-08
1.31942e-05
7.74239e-08
1.31871e-05
7.41108e-08
1.31808e-05
9.12647e-08
1.31732e-05
1.03157e-07
1.31663e-05
9.63428e-08
1.31621e-05
8.34289e-08
1.31613e-05
8.05196e-08
1.31621e-05
8.29722e-08
1.31633e-05
8.19415e-08
1.31654e-05
7.70034e-08
1.31691e-05
7.2709e-08
1.31752e-05
6.99228e-08
1.3182e-05
6.94643e-08
1.3189e-05
6.77678e-08
6.47574e-08
1.31962e-05
1.38824e-05
2.41902e-08
1.38798e-05
4.89679e-08
1.38625e-05
2.62658e-08
1.38532e-05
7.01762e-08
1.38397e-05
1.06072e-07
1.3824e-05
9.30886e-08
1.38152e-05
8.29337e-08
1.38093e-05
9.71873e-08
1.3802e-05
1.10443e-07
1.37946e-05
1.03769e-07
1.37897e-05
8.83018e-08
1.37886e-05
8.15905e-08
1.37897e-05
8.19107e-08
1.37914e-05
8.029e-08
1.37938e-05
7.45172e-08
1.37978e-05
6.87373e-08
1.38039e-05
6.38272e-08
1.38109e-05
6.24659e-08
1.38185e-05
6.02032e-08
5.71726e-08
1.38261e-05
1.45447e-05
2.31498e-08
1.45266e-05
6.70796e-08
1.45165e-05
3.63382e-08
1.45139e-05
7.27918e-08
1.45014e-05
1.18572e-07
1.44845e-05
1.09992e-07
1.44736e-05
9.38483e-08
1.44675e-05
1.03296e-07
1.44608e-05
1.17169e-07
1.44531e-05
1.11428e-07
1.44474e-05
9.3957e-08
1.44458e-05
8.32462e-08
1.44469e-05
8.07818e-08
1.4449e-05
7.8158e-08
1.44519e-05
7.16319e-08
1.44563e-05
6.4317e-08
1.44625e-05
5.77163e-08
1.44695e-05
5.53824e-08
1.44776e-05
5.21155e-08
4.90316e-08
1.44858e-05
1.52392e-05
2.2789e-08
1.52285e-05
7.78688e-08
1.52117e-05
5.31239e-08
1.52051e-05
7.93766e-08
1.51943e-05
1.29317e-07
1.51767e-05
1.27579e-07
1.51637e-05
1.06934e-07
1.51567e-05
1.10259e-07
1.51505e-05
1.23401e-07
1.51428e-05
1.1908e-07
1.51364e-05
1.00364e-07
1.51339e-05
8.5725e-08
1.51349e-05
7.98107e-08
1.51374e-05
7.56216e-08
1.51408e-05
6.8248e-08
1.51457e-05
5.94376e-08
1.51517e-05
5.16756e-08
1.51594e-05
4.77108e-08
1.51676e-05
4.38933e-08
4.00811e-08
1.51766e-05
1.59668e-05
2.33064e-08
1.59628e-05
8.18531e-08
1.59393e-05
7.66206e-08
1.593e-05
8.87401e-08
1.59198e-05
1.39461e-07
1.59021e-05
1.45284e-07
1.5887e-05
1.22027e-07
1.58787e-05
1.18614e-07
1.58725e-05
1.29535e-07
1.58651e-05
1.26515e-07
1.58581e-05
1.07357e-07
1.58546e-05
8.92046e-08
1.58552e-05
7.92413e-08
1.5858e-05
7.28188e-08
1.58619e-05
6.43505e-08
1.58671e-05
5.42682e-08
1.58733e-05
4.54173e-08
1.58817e-05
3.93866e-08
1.58903e-05
3.52459e-08
3.08489e-08
1.58995e-05
1.67282e-05
2.57575e-08
1.67035e-05
1.065e-07
1.66972e-05
8.29429e-08
1.66903e-05
9.5585e-08
1.66791e-05
1.50656e-07
1.66619e-05
1.62476e-07
1.66453e-05
1.38718e-07
1.66351e-05
1.2873e-07
1.66286e-05
1.36109e-07
1.66213e-05
1.33836e-07
1.66139e-05
1.14703e-07
1.66094e-05
9.37297e-08
1.66092e-05
7.93974e-08
1.66121e-05
6.99741e-08
1.66163e-05
6.00716e-08
1.66218e-05
4.88246e-08
1.66286e-05
3.8591e-08
1.66372e-05
3.08125e-08
1.66469e-05
2.55034e-08
2.15861e-08
1.66562e-05
1.75287e-05
2.74218e-08
1.75521e-05
8.30858e-08
1.7516e-05
1.19047e-07
1.74859e-05
1.25652e-07
1.7474e-05
1.6261e-07
1.74578e-05
1.78614e-07
1.74399e-05
1.56674e-07
1.74276e-05
1.40987e-07
1.742e-05
1.43779e-07
1.74125e-05
1.4132e-07
1.74047e-05
1.2244e-07
1.73994e-05
9.90973e-08
1.73982e-05
8.0584e-08
1.74007e-05
6.74292e-08
1.74053e-05
5.55288e-08
1.74112e-05
4.29186e-08
1.74186e-05
3.11663e-08
1.74276e-05
2.17976e-08
1.74378e-05
1.52759e-08
1.09057e-08
1.74485e-05
1.83638e-05
3.19789e-08
1.83388e-05
1.08067e-07
1.83343e-05
1.23602e-07
1.83207e-05
1.39213e-07
1.83077e-05
1.75637e-07
1.82916e-05
1.94699e-07
1.82728e-05
1.7548e-07
1.82583e-05
1.55473e-07
1.8249e-05
1.53023e-07
1.8241e-05
1.49361e-07
1.82327e-05
1.3074e-07
1.82267e-05
1.05102e-07
1.82242e-05
8.3078e-08
1.8226e-05
6.55945e-08
1.82306e-05
5.09224e-08
1.8237e-05
3.6521e-08
1.82451e-05
2.30728e-08
1.82549e-05
1.20741e-08
1.82658e-05
4.33076e-09
-1.07619e-09
1.82778e-05
1.92422e-05
3.6195e-08
1.92427e-05
1.07499e-07
1.92111e-05
1.5521e-07
1.91945e-05
1.55869e-07
1.91804e-05
1.89666e-07
1.91648e-05
2.10316e-07
1.91455e-05
1.94857e-07
1.91286e-05
1.72365e-07
1.91171e-05
1.64465e-07
1.91079e-05
1.58544e-07
1.90988e-05
1.3983e-07
1.9092e-05
1.11988e-07
1.90881e-05
8.69488e-08
1.90889e-05
6.48353e-08
1.90932e-05