/*--------------------------------*- C++ -*----------------------------------*\
| =========                 |                                                 |
| \\      /  F ield         | OpenFOAM: The Open Source CFD Toolbox           |
|  \\    /   O peration     | Version:  v2012                                 |
|   \\  /    A nd           | Website:  www.openfoam.com                      |
|    \\/     M anipulation  |                                                 |
\*---------------------------------------------------------------------------*/
FoamFile
{
    version     2.0;
    format      ascii;
    class       volVectorField;
    location    "4.8";
    object      U;
}
// * * * * * * * * * * * * * * * * * * * * * * * * * * * * * * * * * * * * * //

dimensions      [0 1 -1 0 0 0 0];


internalField   nonuniform List<vector> 
17600
(
(0.840984 0.00273159 0)
(1.14857 -0.00503315 0)
(0.851482 0.00650047 0)
(1.13829 -0.00654295 0)
(0.841481 0.00401812 0)
(1.13485 -0.00215353 0)
(0.840693 -0.00086165 0)
(1.12661 0.000641938 0)
(0.851167 0.000304505 0)
(1.1232 0.000714682 0)
(0.859437 0.00196305 0)
(1.11893 0.00109424 0)
(0.864234 0.00245257 0)
(1.1135 0.00103522 0)
(0.86407 0.00278103 0)
(1.10878 0.000894883 0)
(0.858308 0.0030227 0)
(1.10461 0.000748006 0)
(0.845521 0.00376991 0)
(1.10014 0.000988768 0)
(0.850724 0.00271601 0)
(1.13538 -0.00491129 0)
(0.860002 0.00638683 0)
(1.12228 -0.00624764 0)
(0.850864 0.00386146 0)
(1.11668 -0.00192596 0)
(0.854669 -0.00102561 0)
(1.10743 0.000735836 0)
(0.870341 0.000118812 0)
(1.10106 0.000818063 0)
(0.884506 0.00179613 0)
(1.09086 0.00124293 0)
(0.898161 0.00232231 0)
(1.07585 0.00122085 0)
(0.911504 0.0027501 0)
(1.05582 0.00105155 0)
(0.926711 0.00333022 0)
(1.02738 0.000635281 0)
(0.945857 0.00522693 0)
(0.98494 0.000176719 0)
(0.86976 0.0027309 0)
(1.1129 -0.00479089 0)
(0.87745 0.00629558 0)
(1.09793 -0.00597359 0)
(0.871038 0.00369808 0)
(1.08772 -0.00176794 0)
(0.882332 -0.00112795 0)
(1.07442 0.000727647 0)
(0.903471 1.00329e-05 0)
(1.06456 0.000798929 0)
(0.922952 0.00176156 0)
(1.0502 0.00119366 0)
(0.941897 0.00241923 0)
(1.03191 0.00111604 0)
(0.958303 0.00301913 0)
(1.01222 0.000879299 0)
(0.97112 0.00378521 0)
(0.99234 0.000513804 0)
(0.97745 0.00571582 0)
(0.974626 0.00120343 0)
(0.895235 0.00278404 0)
(1.08557 -0.0046942 0)
(0.901278 0.00626049 0)
(1.07094 -0.00578255 0)
(0.89872 0.00363797 0)
(1.05665 -0.0017584 0)
(0.916547 -0.00110006 0)
(1.03972 0.000574253 0)
(0.938203 3.87242e-05 0)
(1.02994 0.000621866 0)
(0.956367 0.00187319 0)
(1.0184 0.000980003 0)
(0.971874 0.00263359 0)
(1.00642 0.000899129 0)
(0.981675 0.00330797 0)
(0.996598 0.000714956 0)
(0.985466 0.00409988 0)
(0.98851 0.000545691 0)
(0.982836 0.00592659 0)
(0.981015 0.00232409 0)
(0.922883 0.00286243 0)
(1.0584 -0.00461516 0)
(0.927151 0.0062524 0)
(1.04646 -0.00566083 0)
(0.927898 0.00366713 0)
(1.03112 -0.00185555 0)
(0.947934 -0.000977772 0)
(1.01412 0.000374249 0)
(0.964818 0.000113322 0)
(1.00817 0.000422673 0)
(0.977105 0.00197811 0)
(1.00291 0.000791817 0)
(0.986448 0.00276618 0)
(0.998232 0.000772081 0)
(0.990549 0.00344883 0)
(0.994885 0.000672835 0)
(0.990454 0.00425496 0)
(0.990866 0.000671451 0)
(0.986551 0.00608388 0)
(0.984744 0.00333922 0)
(0.948371 0.00294802 0)
(1.03578 -0.0045488 0)
(0.950729 0.00624613 0)
(1.02796 -0.00558891 0)
(0.953188 0.00373095 0)
(1.01488 -0.00199234 0)
(0.971046 -0.000828847 0)
(1.00091 0.000210143 0)
(0.981319 0.000164183 0)
(0.99917 0.000282188 0)
(0.9879 0.00201706 0)
(0.99866 0.00067523 0)
(0.993098 0.00280605 0)
(0.997819 0.000715267 0)
(0.994905 0.00349657 0)
(0.996763 0.000683948 0)
(0.994116 0.00432994 0)
(0.99375 0.000854562 0)
(0.990485 0.00619876 0)
(0.988279 0.00425965 0)
(0.968646 0.00302206 0)
(1.01992 -0.00448907 0)
(0.969242 0.00622665 0)
(1.0163 -0.00554664 0)
(0.971943 0.00378573 0)
(1.0071 -0.00211686 0)
(0.985532 -0.000698704 0)
(0.996823 0.000103607 0)
(0.990464 0.000184957 0)
(0.997394 0.000195385 0)
(0.993526 0.00201168 0)
(0.998914 0.00059627 0)
(0.996818 0.00280422 0)
(0.999375 0.00067831 0)
(0.998008 0.00350707 0)
(0.999047 0.00071817 0)
(0.997222 0.00434883 0)
(0.996544 0.00111345 0)
(0.993867 0.00623034 0)
(0.991787 0.00513572 0)
(0.982669 0.00307112 0)
(1.01054 -0.00443115 0)
(0.982038 0.00618737 0)
(1.01009 -0.00551704 0)
(0.984212 0.00381188 0)
(1.00455 -0.00220718 0)
(0.993697 -0.000597674 0)
(0.997017 4.2209e-05 0)
(0.995462 0.000195355 0)
(0.998109 0.000137632 0)
(0.996757 0.00199139 0)
(1.00005 0.000532382 0)
(0.999206 0.00278769 0)
(1.00083 0.000648333 0)
(1.00022 0.00349595 0)
(1.00085 0.000774933 0)
(0.999514 0.00431863 0)
(0.998742 0.00144133 0)
(0.996455 0.00618487 0)
(0.994624 0.00596219 0)
(0.991178 0.00309158 0)
(1.00577 -0.00437395 0)
(0.990033 0.00613004 0)
(1.00717 -0.00548898 0)
(0.991481 0.00380849 0)
(1.00423 -0.00226293 0)
(0.998045 -0.000518945 0)
(0.998292 7.89618e-06 0)
(0.998316 0.000208876 0)
(0.999159 9.5866e-05 0)
(0.998731 0.00197059 0)
(1.00095 0.000479232 0)
(1.00069 0.00276324 0)
(1.00177 0.000629248 0)
(1.00161 0.00346216 0)
(1.00198 0.000859774 0)
(1.00099 0.00424301 0)
(1.0002 0.00182009 0)
(0.998245 0.00609066 0)
(0.996645 0.00671533 0)
(0.995803 0.00308838 0)
(1.00353 -0.00431859 0)
(0.994725 0.00606053 0)
(1.00574 -0.00545618 0)
(0.995488 0.00378211 0)
(1.00442 -0.00229159 0)
(1.0003 -0.000455263 0)
(0.999392 -1.16679e-05 0)
(1.00004 0.000227071 0)
(1.00001 6.57768e-05 0)
(0.999993 0.00195203 0)
(1.00158 0.000437548 0)
(1.0016 0.0027305 0)
(1.00234 0.000626777 0)
(1.00241 0.00340102 0)
(1.00265 0.000977891 0)
(1.00186 0.00412562 0)
(1.0011 0.00223182 0)
(0.999434 0.0059785 0)
(0.998038 0.00737017 0)
(0.998158 0.00306993 0)
(1.0024 -0.00426596 0)
(0.997448 0.00598379 0)
(1.00486 -0.00541503 0)
(0.997615 0.00373867 0)
(1.00449 -0.00230036 0)
(1.00145 -0.000403903 0)
(1.0001 -2.30014e-05 0)
(1.00114 0.000244848 0)
(1.00069 4.55565e-05 0)
(1.00089 0.0019321 0)
(1.0021 0.000408858 0)
(1.00223 0.00268602 0)
(1.00277 0.000645718 0)
(1.00294 0.00330927 0)
(1.00311 0.00113099 0)
(1.00244 0.00397467 0)
(1.00171 0.00265806 0)
(1.00027 0.00588052 0)
(0.999052 0.00790794 0)
(0.999362 0.00304339 0)
(1.00169 -0.00421585 0)
(0.999079 0.005902 0)
(1.00418 -0.00536349 0)
(0.998755 0.00368111 0)
(1.00439 -0.00229348 0)
(1.00203 -0.000365411 0)
(1.00052 -2.96715e-05 0)
(1.00187 0.000255938 0)
(1.00126 3.37235e-05 0)
(1.0016 0.00190506 0)
(1.0026 0.00039525 0)
(1.00278 0.00262516 0)
(1.00318 0.000689308 0)
(1.00338 0.00318749 0)
(1.00349 0.00131544 0)
(1.00289 0.00380607 0)
(1.00219 0.00307642 0)
(1.00095 0.00582584 0)
(0.99986 0.00832225 0)
(1.00002 0.00301292 0)
(1.00119 -0.00416719 0)
(1.00009 0.00581526 0)
(1.00364 -0.00530077 0)
(0.9994 0.00361041 0)
(1.0042 -0.00227268 0)
(1.00231 -0.00034113 0)
(1.00077 -3.26615e-05 0)
(1.00238 0.000255504 0)
(1.00172 2.93451e-05 0)
(1.00218 0.00186602 0)
(1.00308 0.000398602 0)
(1.00326 0.00254437 0)
(1.00359 0.000758604 0)
(1.00379 0.00304009 0)
(1.00385 0.00152228 0)
(1.00329 0.00364199 0)
(1.0026 0.00346335 0)
(1.00153 0.00583227 0)
(1.00055 0.00862231 0)
(1.00039 0.00298011 0)
(1.00085 -0.00411854 0)
(1.00072 0.00572278 0)
(1.00325 -0.00522695 0)
(0.999788 0.00352699 0)
(1.00402 -0.00223826 0)
(1.00245 -0.00033223 0)
(1.00091 -3.03326e-05 0)
(1.00271 0.00024059 0)
(1.00208 3.27668e-05 0)
(1.00263 0.00181152 0)
(1.00348 0.000418976 0)
(1.00367 0.00244296 0)
(1.00394 0.00085148 0)
(1.00414 0.00287521 0)
(1.00416 0.00173811 0)
(1.00365 0.0035056 0)
(1.00295 0.00380179 0)
(1.00203 0.00590195 0)
(1.00114 0.00882967 0)
(1.0006 0.00294522 0)
(1.00065 -0.00406842 0)
(1.0011 0.00562355 0)
(1.00299 -0.00514231 0)
(1.00003 0.00343105 0)
(1.00387 -0.0021902 0)
(1.00253 -0.000338813 0)
(1.00099 -2.03199e-05 0)
(1.00292 0.000209382 0)
(1.00233 4.63685e-05 0)
(1.00295 0.00173841 0)
(1.00377 0.000455338 0)
(1.00398 0.00232122 0)
(1.00421 0.000962738 0)
(1.00442 0.00270302 0)
(1.0044 0.00194788 0)
(1.00394 0.00341279 0)
(1.00325 0.0040889 0)
(1.00246 0.00602476 0)
(1.00165 0.00897099 0)
(1.00072 0.00290804 0)
(1.00054 -0.00401547 0)
(1.0013 0.00551659 0)
(1.00283 -0.00504686 0)
(1.00019 0.00332234 0)
(1.00374 -0.00212797 0)
(1.00259 -0.000361715 0)
(1.00103 7.85752e-07 0)
(1.00305 0.000160873 0)
(1.0025 7.3438e-05 0)
(1.00316 0.00164488 0)
(1.00397 0.000506921 0)
(1.0042 0.00218115 0)
(1.00439 0.0010846 0)
(1.00463 0.00253669 0)
(1.00457 0.00213713 0)
(1.00417 0.00336849 0)
(1.0035 0.00433251 0)
(1.00283 0.00618257 0)
(1.0021 0.00906924 0)
(1.00078 0.00286829 0)
(1.00049 -0.00395859 0)
(1.00141 0.00540096 0)
(1.00273 -0.00494031 0)
(1.0003 0.00320028 0)
(1.00364 -0.0020511 0)
(1.00265 -0.000401475 0)
(1.00105 3.51678e-05 0)
(1.00313 9.25587e-05 0)
(1.0026 0.000114581 0)
(1.00329 0.00153275 0)
(1.00408 0.00057118 0)
(1.00435 0.00202919 0)
(1.0045 0.00120521 0)
(1.00478 0.00239274 0)
(1.00469 0.00229494 0)
(1.00436 0.00336986 0)
(1.00371 0.00454171 0)
(1.00317 0.0063545 0)
(1.0025 0.00913772 0)
(1.00082 0.00282576 0)
(1.00047 -0.00389686 0)
(1.00146 0.00527586 0)
(1.00265 -0.0048223 0)
(1.00039 0.00306416 0)
(1.00354 -0.00195909 0)
(1.00271 -0.00045906 0)
(1.00105 8.53625e-05 0)
(1.00319 4.12466e-06 0)
(1.00267 0.000168701 0)
(1.00339 0.0014057 0)
(1.00415 0.000642512 0)
(1.00445 0.00187489 0)
(1.00457 0.00130969 0)
(1.00489 0.00228341 0)
(1.00477 0.00242095 0)
(1.00453 0.00340954 0)
(1.0039 0.00472686 0)
(1.00347 0.00652695 0)
(1.00287 0.00918299 0)
(1.00084 0.00278018 0)
(1.00046 -0.00382937 0)
(1.00149 0.00514054 0)
(1.00259 -0.00469229 0)
(1.00047 0.0029129 0)
(1.00345 -0.00185052 0)
(1.00279 -0.000536774 0)
(1.00105 0.000153693 0)
(1.00323 -9.89983e-05 0)
(1.00272 0.000234789 0)
(1.00345 0.00126823 0)
(1.00419 0.000712784 0)
(1.00452 0.0017306 0)
(1.00461 0.0013849 0)
(1.00499 0.00220929 0)
(1.00485 0.00252431 0)
(1.00469 0.00347703 0)
(1.00409 0.00490055 0)
(1.00377 0.00669885 0)
(1.00323 0.00921398 0)
(1.00086 0.00273131 0)
(1.00046 -0.00375525 0)
(1.00151 0.00499377 0)
(1.00252 -0.00454862 0)
(1.00055 0.00274372 0)
(1.00336 -0.00172289 0)
(1.00286 -0.000635918 0)
(1.00105 0.000238234 0)
(1.00328 -0.000216897 0)
(1.00277 0.000308444 0)
(1.00351 0.00112749 0)
(1.00422 0.000770778 0)
(1.00459 0.00160913 0)
(1.00464 0.00142492 0)
(1.00507 0.00215907 0)
(1.00492 0.00261452 0)
(1.00484 0.00355856 0)
(1.00428 0.00506909 0)
(1.00406 0.00687517 0)
(1.00357 0.00924512 0)
(1.00087 0.002679 0)
(1.00047 -0.00367361 0)
(1.00151 0.00483419 0)
(1.00247 -0.00439012 0)
(1.00063 0.00255518 0)
(1.00327 -0.00157652 0)
(1.00294 -0.000755236 0)
(1.00106 0.000337986 0)
(1.00332 -0.000350281 0)
(1.00281 0.000380895 0)
(1.00356 0.000992898 0)
(1.00424 0.000803005 0)
(1.00464 0.00151696 0)
(1.00467 0.0014354 0)
(1.00515 0.00212028 0)
(1.00499 0.00269957 0)
(1.005 0.00364546 0)
(1.00448 0.00522979 0)
(1.00434 0.00705756 0)
(1.00391 0.00929092 0)
(1.00087 0.00262302 0)
(1.00048 -0.00358349 0)
(1.00151 0.00466061 0)
(1.00241 -0.00421606 0)
(1.00071 0.00234704 0)
(1.00319 -0.00141234 0)
(1.00302 -0.000892096 0)
(1.00106 0.000447782 0)
(1.00335 -0.000486474 0)
(1.00286 0.000447538 0)
(1.0036 0.000879329 0)
(1.00427 0.000801258 0)
(1.00469 0.0014523 0)
(1.0047 0.00142886 0)
(1.00523 0.00208526 0)
(1.00508 0.00278391 0)
(1.00516 0.00373738 0)
(1.0047 0.005378 0)
(1.00463 0.0072402 0)
(1.00424 0.00936102 0)
(1.00086 0.00256324 0)
(1.0005 -0.00348367 0)
(1.0015 0.0044713 0)
(1.00236 -0.00402496 0)
(1.00078 0.00211937 0)
(1.00312 -0.00123055 0)
(1.0031 -0.00104666 0)
(1.00108 0.00056727 0)
(1.00338 -0.000621208 0)
(1.00291 0.000495031 0)
(1.00364 0.000790558 0)
(1.0043 0.000763414 0)
(1.00474 0.00140233 0)
(1.00474 0.0014161 0)
(1.00532 0.00204328 0)
(1.00518 0.00286454 0)
(1.00533 0.00382848 0)
(1.00494 0.00551033 0)
(1.00493 0.00740972 0)
(1.00457 0.00945903 0)
(1.00083 0.00249844 0)
(1.00054 -0.00337131 0)
(1.00148 0.00426189 0)
(1.00232 -0.00381406 0)
(1.00085 0.00186802 0)
(1.00305 -0.00103021 0)
(1.00317 -0.00121663 0)
(1.0011 0.000689446 0)
(1.0034 -0.000750717 0)
(1.00298 0.000514448 0)
(1.00366 0.000734416 0)
(1.00434 0.000694319 0)
(1.00478 0.00135558 0)
(1.00478 0.0014 0)
(1.00541 0.00198568 0)
(1.00529 0.00293373 0)
(1.00551 0.0039101 0)
(1.00519 0.00562014 0)
(1.00523 0.00755694 0)
(1.0049 0.00959083 0)
(1.00079 0.00243095 0)
(1.00059 -0.00324907 0)
(1.00145 0.0040362 0)
(1.00229 -0.00359078 0)
(1.0009 0.00160127 0)
(1.00299 -0.000823306 0)
(1.00322 -0.00138668 0)
(1.00114 0.000794088 0)
(1.0034 -0.00084342 0)
(1.00306 0.000477123 0)
(1.00368 0.000727208 0)
(1.00439 0.000586196 0)
(1.00482 0.00132074 0)
(1.00482 0.00137037 0)
(1.0055 0.00191892 0)
(1.00542 0.00296424 0)
(1.00569 0.00397185 0)
(1.00547 0.00563557 0)
(1.00554 0.00765811 0)
(1.00523 0.00973471 0)
(1.00073 0.00235754 0)
(1.00065 -0.0031104 0)
(1.0014 0.00378951 0)
(1.00227 -0.00334985 0)
(1.00095 0.00131717 0)
(1.00294 -0.000610181 0)
(1.00327 -0.00155473 0)
(1.00118 0.000881969 0)
(1.00339 -0.000899308 0)
(1.00315 0.000389744 0)
(1.00368 0.000739999 0)
(1.00444 0.000465064 0)
(1.00486 0.00127793 0)
(1.00487 0.00135849 0)
(1.00559 0.00183749 0)
(1.00557 0.00295917 0)
(1.00587 0.00399465 0)
(1.00576 0.00556419 0)
(1.00588 0.00760757 0)
(1.00558 0.00970436 0)
(1.00066 0.00227936 0)
(1.00073 -0.00295654 0)
(1.00135 0.003522 0)
(1.00226 -0.00309243 0)
(1.00099 0.00101703 0)
(1.00289 -0.000397269 0)
(1.00331 -0.00170966 0)
(1.00124 0.000935353 0)
(1.00337 -0.000917173 0)
(1.00325 0.000279945 0)
(1.00367 0.00076295 0)
(1.00449 0.000354003 0)
(1.0049 0.00121313 0)
(1.00493 0.00137948 0)
(1.00568 0.001769 0)
(1.00573 0.00294021 0)
(1.00605 0.00407346 0)
(1.00606 0.00556265 0)
(1.00624 0.00756587 0)
(1.00598 0.00971415 0)
(1.00058 0.00219851 0)
(1.0008 -0.00279105 0)
(1.00129 0.00324324 0)
(1.00224 -0.00283199 0)
(1.00102 0.000721968 0)
(1.00285 -0.000206502 0)
(1.00333 -0.00183183 0)
(1.00131 0.000935945 0)
(1.00333 -0.000881547 0)
(1.00337 0.000135057 0)
(1.00366 0.000810758 0)
(1.00455 0.000251072 0)
(1.00494 0.00112846 0)
(1.00498 0.0014269 0)
(1.00577 0.00177545 0)
(1.00592 0.002971 0)
(1.00624 0.0042593 0)
(1.00636 0.00567601 0)
(1.0066 0.00760156 0)
(1.00639 0.00973673 0)
(1.00049 0.00211042 0)
(1.00088 -0.0026065 0)
(1.00122 0.00294511 0)
(1.00222 -0.00256038 0)
(1.00105 0.000425334 0)
(1.00282 -3.14851e-05 0)
(1.00335 -0.00192927 0)
(1.00138 0.000905351 0)
(1.00328 -0.000819734 0)
(1.00348 -2.42396e-05 0)
(1.00365 0.00086062 0)
(1.0046 0.00020675 0)
(1.005 0.00104148 0)
(1.00505 0.00153989 0)
(1.00586 0.00185752 0)
(1.00613 0.00305135 0)
(1.00645 0.00445182 0)
(1.00666 0.00584544 0)
(1.00697 0.00764753 0)
(1.00682 0.00972806 0)
(1.00041 0.00202163 0)
(1.00094 -0.00241554 0)
(1.00116 0.00264098 0)
(1.0022 -0.00229894 0)
(1.00109 0.000145433 0)
(1.00278 0.000110082 0)
(1.00336 -0.0019912 0)
(1.00146 0.000841418 0)
(1.00322 -0.000729719 0)
(1.0036 -0.000194688 0)
(1.00365 0.000905802 0)
(1.00463 0.000245501 0)
(1.00507 0.000998542 0)
(1.00513 0.00171969 0)
(1.00595 0.00199787 0)
(1.00635 0.00312603 0)
(1.00667 0.00461006 0)
(1.00696 0.00601338 0)
(1.00733 0.00767761 0)
(1.00724 0.00965321 0)
(1.00034 0.00192811 0)
(1.001 -0.002214 0)
(1.0011 0.00233539 0)
(1.00217 -0.00205747 0)
(1.00113 -0.000107082 0)
(1.00274 0.000210483 0)
(1.00337 -0.00201415 0)
(1.00155 0.000746791 0)
(1.00316 -0.000611941 0)
(1.00371 -0.000336467 0)
(1.00366 0.000957627 0)
(1.00466 0.000356203 0)
(1.00515 0.00098905 0)
(1.00522 0.00191318 0)
(1.00604 0.00218382 0)
(1.00658 0.00318766 0)
(1.00692 0.00471159 0)
(1.00726 0.00614336 0)
(1.00768 0.00769261 0)
(1.00767 0.00952826 0)
(1.00027 0.00183156 0)
(1.00104 -0.00200416 0)
(1.00106 0.00203063 0)
(1.00212 -0.00184086 0)
(1.00117 -0.000341355 0)
(1.00269 0.000279356 0)
(1.00338 -0.00201394 0)
(1.00163 0.000649366 0)
(1.00309 -0.000471805 0)
(1.00382 -0.000402186 0)
(1.00369 0.00102813 0)
(1.00468 0.000515597 0)
(1.00524 0.000978895 0)
(1.00532 0.00206149 0)
(1.00612 0.00238078 0)
(1.00679 0.00324264 0)
(1.00718 0.00474515 0)
(1.00756 0.00621696 0)
(1.00802 0.00767944 0)
(1.00808 0.00936691 0)
(1.00021 0.00173589 0)
(1.00106 -0.00180094 0)
(1.00102 0.00175073 0)
(1.00207 -0.00166254 0)
(1.00122 -0.000551168 0)
(1.00264 0.000307843 0)
(1.00339 -0.00199814 0)
(1.00172 0.000545162 0)
(1.00304 -0.000286206 0)
(1.00392 -0.000411954 0)
(1.00373 0.0011109 0)
(1.00469 0.000709398 0)
(1.00534 0.000970553 0)
(1.00544 0.0021446 0)
(1.0062 0.0025694 0)
(1.007 0.00330053 0)
(1.00745 0.00472836 0)
(1.00786 0.00623213 0)
(1.00836 0.00763117 0)
(1.00847 0.00917781 0)
(1.00017 0.00163796 0)
(1.00106 -0.00160022 0)
(1.00099 0.00149768 0)
(1.002 -0.00151772 0)
(1.00127 -0.000737977 0)
(1.0026 0.000306323 0)
(1.0034 -0.00195496 0)
(1.00181 0.000430741 0)
(1.00298 -4.96989e-05 0)
(1.00401 -0.000393113 0)
(1.00379 0.00117043 0)
(1.00468 0.000929284 0)
(1.00543 0.000987929 0)
(1.00557 0.00217627 0)
(1.00628 0.00274636 0)
(1.00719 0.0033784 0)
(1.00773 0.00469773 0)
(1.00817 0.00620892 0)
(1.00868 0.00756417 0)
(1.00884 0.00898385 0)
(1.00013 0.00154268 0)
(1.00106 -0.00141386 0)
(1.00096 0.00127503 0)
(1.00193 -0.00139208 0)
(1.00133 -0.000913711 0)
(1.00255 0.000284276 0)
(1.0034 -0.00188425 0)
(1.00191 0.000346274 0)
(1.00294 0.000208724 0)
(1.00408 -0.000347274 0)
(1.00387 0.0011802 0)
(1.00467 0.00114184 0)
(1.00551 0.001035 0)
(1.00571 0.00216317 0)
(1.00638 0.00289313 0)
(1.00736 0.00347441 0)
(1.00801 0.00466956 0)
(1.00849 0.0061595 0)
(1.009 0.00748473 0)
(1.0092 0.00879389 0)
(1.0001 0.00145044 0)
(1.00104 -0.00124562 0)
(1.00093 0.00109086 0)
(1.00184 -0.00128734 0)
(1.00139 -0.00106742 0)
(1.0025 0.000265163 0)
(1.00341 -0.00177306 0)
(1.00202 0.00029452 0)
(1.00289 0.000455835 0)
(1.00414 -0.000267174 0)
(1.00397 0.00115152 0)
(1.00465 0.00132907 0)
(1.00557 0.0011173 0)
(1.00586 0.00212537 0)
(1.00649 0.00299932 0)
(1.00752 0.0035778 0)
(1.00828 0.00464831 0)
(1.00881 0.00608799 0)
(1.00932 0.0073877 0)
(1.00954 0.00860173 0)
(1.00007 0.00135672 0)
(1.00101 -0.00109001 0)
(1.00091 0.000935267 0)
(1.00176 -0.00118402 0)
(1.00145 -0.00119537 0)
(1.00247 0.000266795 0)
(1.00341 -0.00160273 0)
(1.00214 0.000235666 0)
(1.00285 0.000671829 0)
(1.00418 -0.000159716 0)
(1.00407 0.00109302 0)
(1.00464 0.00148513 0)
(1.00562 0.00123186 0)
(1.00602 0.00209034 0)
(1.00662 0.00306573 0)
(1.00767 0.00368123 0)
(1.00855 0.00463783 0)
(1.00913 0.00600046 0)
(1.00964 0.00726961 0)
(1.00985 0.00840193 0)
(1.00005 0.0012697 0)
(1.00098 -0.000963023 0)
(1.00089 0.000807399 0)
(1.00166 -0.00105728 0)
(1.00151 -0.0012986 0)
(1.00245 0.000261315 0)
(1.00341 -0.00140678 0)
(1.00226 0.000161474 0)
(1.00283 0.00084556 0)
(1.0042 -2.46307e-05 0)
(1.00418 0.00101796 0)
(1.00465 0.00160785 0)
(1.00565 0.00137089 0)
(1.00617 0.00207468 0)
(1.00677 0.00309402 0)
(1.00783 0.00377209 0)
(1.0088 0.00463333 0)
(1.00945 0.00589772 0)
(1.00995 0.00712723 0)
(1.01016 0.00819191 0)
(1.00003 0.00118591 0)
(1.00095 -0.00085943 0)
(1.00086 0.000697643 0)
(1.00157 -0.000905108 0)
(1.00156 -0.00136192 0)
(1.00244 0.000239485 0)
(1.00341 -0.00119753 0)
(1.00239 9.34098e-05 0)
(1.00281 0.000977803 0)
(1.0042 0.000140732 0)
(1.0043 0.000949986 0)
(1.00467 0.00169853 0)
(1.00567 0.00153386 0)
(1.00632 0.00209096 0)
(1.00693 0.00309794 0)
(1.00798 0.00384088 0)
(1.00903 0.00462892 0)
(1.00976 0.00578105 0)
(1.01027 0.00695959 0)
(1.01045 0.00796938 0)
(1.00001 0.00110531 0)
(1.00092 -0.000775374 0)
(1.00085 0.000596992 0)
(1.00147 -0.000727336 0)
(1.00162 -0.00138837 0)
(1.00245 0.000200871 0)
(1.0034 -0.000970954 0)
(1.00252 5.31514e-05 0)
(1.00281 0.00107472 0)
(1.00419 0.000331692 0)
(1.00441 0.000907706 0)
(1.00471 0.00174987 0)
(1.00569 0.00170107 0)
(1.00646 0.00213275 0)
(1.00711 0.00308496 0)
(1.00814 0.00387577 0)
(1.00925 0.00461283 0)
(1.01006 0.0056501 0)
(1.01058 0.00676638 0)
(1.01073 0.0077308 0)
(0.999993 0.00102545 0)
(1.00089 -0.000700557 0)
(1.00084 0.000501063 0)
(1.00137 -0.000534179 0)
(1.00166 -0.00137794 0)
(1.00247 0.000153014 0)
(1.0034 -0.000737433 0)
(1.00265 4.27124e-05 0)
(1.00283 0.00113934 0)
(1.00416 0.00054153 0)
(1.00451 0.000907645 0)
(1.00477 0.00177004 0)
(1.00571 0.00185313 0)
(1.00658 0.00219393 0)
(1.00729 0.00306427 0)
(1.00831 0.00387672 0)
(1.00947 0.00457955 0)
(1.01035 0.00550909 0)
(1.01088 0.00655384 0)
(1.011 0.00747816 0)
(0.999979 0.000949893 0)
(1.00086 -0.000638767 0)
(1.00084 0.000402282 0)
(1.00128 -0.00033676 0)
(1.0017 -0.00131353 0)
(1.00251 0.000117798 0)
(1.0034 -0.000497968 0)
(1.00278 6.04399e-05 0)
(1.00286 0.00116628 0)
(1.00414 0.000741829 0)
(1.00461 0.000944084 0)
(1.00485 0.00177226 0)
(1.00574 0.00197935 0)
(1.00669 0.00227164 0)
(1.00747 0.00305043 0)
(1.00849 0.00385917 0)
(1.00967 0.00453564 0)
(1.01062 0.00536541 0)
(1.01119 0.00632827 0)
(1.01127 0.00720989 0)
(0.999967 0.0008661 0)
(1.00083 -0.000576117 0)
(1.00085 0.000284656 0)
(1.0012 -0.000149771 0)
(1.00173 -0.00119304 0)
(1.00257 0.000112267 0)
(1.0034 -0.000248106 0)
(1.0029 0.000111563 0)
(1.00292 0.00116312 0)
(1.00411 0.000909767 0)
(1.00469 0.000996726 0)
(1.00494 0.0017568 0)
(1.00578 0.00206215 0)
(1.00679 0.00234015 0)
(1.00765 0.00303581 0)
(1.00867 0.00382518 0)
(1.00987 0.00448035 0)
(1.01088 0.00521918 0)
(1.01148 0.00609147 0)
(1.01155 0.00692335 0)
(0.999959 0.000801963 0)
(1.0008 -0.000544134 0)
(1.00088 0.000145653 0)
(1.00113 -4.66445e-05 0)
(1.00176 -0.000998147 0)
(1.00264 0.000145546 0)
(1.00342 -7.25314e-06 0)
(1.003 0.000195626 0)
(1.00298 0.00114979 0)
(1.0041 0.00105423 0)
(1.00475 0.00107116 0)
(1.00504 0.00174212 0)
(1.00584 0.00210926 0)
(1.00689 0.00238492 0)
(1.00782 0.00300842 0)
(1.00886 0.00376649 0)
(1.01006 0.0044009 0)
(1.01112 0.00505749 0)
(1.01177 0.00583218 0)
(1.01182 0.00660467 0)
(0.999952 0.000703581 0)
(1.00076 -0.000494517 0)
(1.00091 -8.86831e-05 0)
(1.00108 0.000109845 0)
(1.00179 -0.000678737 0)
(1.00272 0.000250717 0)
(1.00344 0.000233789 0)
(1.0031 0.000336047 0)
(1.00306 0.00116707 0)
(1.00409 0.00119973 0)
(1.00482 0.0011945 0)
(1.00514 0.001768 0)
(1.0059 0.00216381 0)
(1.00698 0.00243601 0)
(1.00799 0.00299336 0)
(1.00904 0.00370871 0)
(1.01024 0.00431959 0)
(1.01134 0.00490356 0)
(1.01203 0.00557721 0)
(1.01208 0.00627882 0)
(0.999947 0.000659764 0)
(1.00072 -0.000526095 0)
(1.00096 -0.000236057 0)
(1.00108 0.000340694 0)
(1.00182 -0.000344991 0)
(1.0028 0.000358646 0)
(1.00347 0.000464752 0)
(1.00319 0.000520427 0)
(1.00316 0.00120484 0)
(1.00412 0.00132238 0)
(1.00489 0.00132821 0)
(1.00526 0.00181625 0)
(1.00599 0.00221874 0)
(1.00709 0.00248666 0)
(1.00817 0.00297987 0)
(1.00924 0.00364458 0)
(1.01043 0.00423054 0)
(1.01155 0.00475415 0)
(1.01229 0.00532983 0)
(1.01234 0.00595009 0)
(0.999943 0.000642342 0)
(1.00069 -0.000465397 0)
(1.00105 -0.000250892 0)
(1.00111 0.000409003 0)
(1.00185 -0.000138678 0)
(1.00288 0.000378912 0)
(1.00351 0.000615736 0)
(1.00327 0.000677052 0)
(1.00325 0.00121345 0)
(1.00415 0.00137735 0)
(1.00495 0.00141106 0)
(1.00537 0.00183933 0)
(1.00608 0.00224256 0)
(1.0072 0.00250781 0)
(1.00834 0.00293941 0)
(1.00944 0.00355276 0)
(1.01062 0.00411714 0)
(1.01175 0.00459717 0)
(1.01252 0.00508609 0)
(1.01259 0.00562077 0)
(0.999942 0.000438043 0)
(1.00065 -6.54926e-06 0)
(1.00111 -0.00021243 0)
(1.00114 0.000357122 0)
(1.00187 -4.90449e-05 0)
(1.00296 0.000327735 0)
(1.00357 0.000680225 0)
(1.00335 0.000813716 0)
(1.00333 0.00123928 0)
(1.00418 0.00141046 0)
(1.00501 0.0014638 0)
(1.00548 0.00184061 0)
(1.00617 0.00222728 0)
(1.00729 0.00247387 0)
(1.00849 0.00283462 0)
(1.00963 0.00338664 0)
(1.0108 0.00392547 0)
(1.01192 0.00437328 0)
(1.01271 0.00479024 0)
(1.01281 0.00524175 0)
(0.999955 0.000461744 0)
(1.00061 -8.69951e-05 0)
(1.00111 -0.000262505 0)
(1.00116 0.000539064 0)
(1.00189 0.000280401 0)
(1.00304 0.00044998 0)
(1.00364 0.000822128 0)
(1.00342 0.00103619 0)
(1.00339 0.00137881 0)
(1.00421 0.00151789 0)
(1.00506 0.00157872 0)
(1.00556 0.00192158 0)
(1.00623 0.00229097 0)
(1.00735 0.00251226 0)
(1.00861 0.00280143 0)
(1.0098 0.00328231 0)
(1.01096 0.00378605 0)
(1.01206 0.00420402 0)
(1.01286 0.00455963 0)
(1.01298 0.00492902 0)
(0.999951 0.000463464 0)
(1.00056 -0.000146611 0)
(1.00122 -0.000282751 0)
(1.00125 0.000756815 0)
(1.00191 0.000642033 0)
(1.00311 0.000600848 0)
(1.00372 0.000943255 0)
(1.0035 0.00125189 0)
(1.00346 0.00156038 0)
(1.00425 0.00164784 0)
(1.00513 0.00169696 0)
(1.00567 0.00201108 0)
(1.00633 0.00235829 0)
(1.00743 0.00255289 0)
(1.00874 0.00276837 0)
(1.00998 0.00316804 0)
(1.01114 0.00362615 0)
(1.01222 0.00401706 0)
(1.01302 0.00432541 0)
(1.01315 0.00462223 0)
(0.999964 0.000326516 0)
(1.00053 0.000198246 0)
(1.00128 -0.00018151 0)
(1.00134 0.000742048 0)
(1.00192 0.000809862 0)
(1.00316 0.000677607 0)
(1.00382 0.000968272 0)
(1.0036 0.00136585 0)
(1.00353 0.00166699 0)
(1.00428 0.00170901 0)
(1.00519 0.0017177 0)
(1.00577 0.00199931 0)
(1.00641 0.00232117 0)
(1.00749 0.00250166 0)
(1.00883 0.00265021 0)
(1.01013 0.0029621 0)
(1.01131 0.00336686 0)
(1.01237 0.00373551 0)
(1.01314 0.00401562 0)
(1.01328 0.00425833 0)
(0.999971 0.000310006 0)
(1.00048 0.000347304 0)
(1.00132 -0.00011086 0)
(1.00143 0.000711259 0)
(1.00194 0.000993339 0)
(1.00318 0.000842245 0)
(1.0039 0.00103507 0)
(1.00369 0.00147968 0)
(1.00357 0.00179235 0)
(1.00428 0.0018061 0)
(1.00522 0.0017594 0)
(1.00585 0.00199324 0)
(1.00648 0.00230388 0)
(1.00752 0.00248134 0)
(1.00889 0.00257772 0)
(1.01024 0.00279312 0)
(1.01145 0.00312531 0)
(1.0125 0.00346041 0)
(1.01325 0.00371745 0)
(1.01337 0.00391726 0)
(0.999981 0.000250277 0)
(1.00043 0.000501571 0)
(1.00133 3.69486e-05 0)
(1.00152 0.00073812 0)
(1.00196 0.00119215 0)
(1.00319 0.00104992 0)
(1.00398 0.00113883 0)
(1.00379 0.00160328 0)
(1.00361 0.00197155 0)
(1.00427 0.00197289 0)
(1.00523 0.00186064 0)
(1.00592 0.00201169 0)
(1.00654 0.00230449 0)
(1.00754 0.00247699 0)
(1.0089 0.0025261 0)
(1.01031 0.00263769 0)
(1.01156 0.00287316 0)
(1.0126 0.00315351 0)
(1.01333 0.00338325 0)
(1.01343 0.00354984 0)
(0.99999 0.000278057 0)
(1.00039 0.000498609 0)
(1.00134 0.000186069 0)
(1.00162 0.000830173 0)
(1.002 0.00143794 0)
(1.00318 0.0013163 0)
(1.00404 0.0012815 0)
(1.0039 0.00171673 0)
(1.00366 0.00214205 0)
(1.00424 0.00214985 0)
(1.00522 0.00197254 0)
(1.00597 0.00202843 0)
(1.0066 0.00228392 0)
(1.00756 0.00245904 0)
(1.00889 0.00247782 0)
(1.01034 0.00250065 0)
(1.01164 0.0026341 0)
(1.01269 0.00284372 0)
(1.01339 0.00303892 0)
(1.01347 0.00317902 0)
(0.999999 0.000244939 0)
(1.00035 0.000621045 0)
(1.00136 0.00037197 0)
(1.00173 0.000914987 0)
(1.00205 0.00162724 0)
(1.00316 0.00157908 0)
(1.00408 0.00145607 0)
(1.00401 0.00183103 0)
(1.00372 0.00229968 0)
(1.0042 0.00233861 0)
(1.00517 0.00210915 0)
(1.006 0.00206148 0)
(1.00666 0.00224578 0)
(1.00757 0.00240302 0)
(1.00886 0.00240102 0)
(1.01032 0.00234871 0)
(1.01167 0.00238219 0)
(1.01276 0.00250283 0)
(1.01345 0.0026475 0)
(1.0135 0.00275792 0)
(1.00001 0.000200189 0)
(1.00032 0.000790202 0)
(1.00134 0.000553844 0)
(1.00181 0.000980466 0)
(1.0021 0.00178336 0)
(1.00312 0.00186633 0)
(1.00409 0.00168974 0)
(1.0041 0.0019608 0)
(1.00378 0.00243739 0)
(1.00415 0.00252693 0)
(1.00509 0.00226779 0)
(1.00598 0.00211634 0)
(1.00669 0.00220146 0)
(1.00756 0.00231362 0)
(1.00879 0.00229202 0)
(1.01025 0.0021856 0)
(1.01164 0.00212839 0)
(1.01276 0.0021559 0)
(1.01346 0.00223453 0)
(1.0135 0.00230715 0)
(1.00001 0.000268467 0)
(1.00029 0.000871176 0)
(1.0013 0.000741004 0)
(1.0019 0.00105704 0)
(1.00217 0.00188394 0)
(1.00309 0.00208643 0)
(1.00406 0.00186795 0)
(1.00417 0.00202703 0)
(1.00384 0.00248088 0)
(1.00409 0.00264271 0)
(1.00497 0.00239252 0)
(1.00591 0.00215615 0)
(1.00667 0.00212964 0)
(1.00752 0.0021826 0)
(1.00869 0.00213607 0)
(1.01013 0.00199354 0)
(1.01154 0.00185561 0)
(1.01271 0.00179283 0)
(1.01343 0.00179211 0)
(1.01346 0.00181296 0)
(1.00002 0.000203303 0)
(1.00025 0.00106709 0)
(1.00125 0.000999283 0)
(1.00195 0.00120414 0)
(1.00223 0.00202929 0)
(1.00304 0.00236855 0)
(1.004 0.00216945 0)
(1.00421 0.00222999 0)
(1.0039 0.00263822 0)
(1.00403 0.00284546 0)
(1.00482 0.00262018 0)
(1.00578 0.00229776 0)
(1.00659 0.00214337 0)
(1.00744 0.00210505 0)
(1.00857 0.00201307 0)
(1.00996 0.00182377 0)
(1.01138 0.0016106 0)
(1.01258 0.00145248 0)
(1.01333 0.00136453 0)
(1.01337 0.00131803 0)
(1.00002 0.000264607 0)
(1.00024 0.00103193 0)
(1.00116 0.00118983 0)
(1.00198 0.00141731 0)
(1.0023 0.00222119 0)
(1.00299 0.00265972 0)
(1.00391 0.00250262 0)
(1.0042 0.00246041 0)
(1.00393 0.00278711 0)
(1.00395 0.00300596 0)
(1.00462 0.00281569 0)
(1.00558 0.0024301 0)
(1.00644 0.0021554 0)
(1.0073 0.00200794 0)
(1.00838 0.00185246 0)
(1.00972 0.00160828 0)
(1.01113 0.00132746 0)
(1.01236 0.00107918 0)
(1.01315 0.000905912 0)
(1.01321 0.000789003 0)
(1.00003 0.000338902 0)
(1.00021 0.000995153 0)
(1.00114 0.00140256 0)
(1.00201 0.00166894 0)
(1.00238 0.00240716 0)
(1.00296 0.00291629 0)
(1.0038 0.00282061 0)
(1.00417 0.00271405 0)
(1.00395 0.00294851 0)
(1.00389 0.00316028 0)
(1.00443 0.00300825 0)
(1.00533 0.00259156 0)
(1.00623 0.00220814 0)
(1.00712 0.00193772 0)
(1.00816 0.001691 0)
(1.00945 0.00137851 0)
(1.01083 0.00102375 0)
(1.01208 0.000688893 0)
(1.01291 0.000425365 0)
(1.013 0.000235284 0)
(1.00003 0.000327817 0)
(1.00022 0.00117585 0)
(1.0011 0.00167526 0)
(1.00202 0.00191382 0)
(1.00244 0.00258769 0)
(1.00293 0.00317204 0)
(1.00368 0.00318009 0)
(1.00409 0.00304636 0)
(1.00393 0.00318777 0)
(1.00381 0.00336497 0)
(1.00421 0.00323097 0)
(1.00503 0.00279539 0)
(1.00593 0.00230799 0)
(1.00683 0.00190288 0)
(1.00785 0.00153731 0)
(1.00909 0.00113631 0)
(1.01044 0.000694348 0)
(1.01169 0.000267842 0)
(1.01256 -9.48012e-05 0)
(1.0127 -0.000376704 0)
(1.00003 0.000376677 0)
(1.0002 0.00134083 0)
(1.00104 0.00191964 0)
(1.00199 0.00216458 0)
(1.00247 0.00276503 0)
(1.00289 0.0033826 0)
(1.00353 0.00349271 0)
(1.00395 0.00337332 0)
(1.00385 0.00342919 0)
(1.00368 0.00356412 0)
(1.00394 0.00343652 0)
(1.00465 0.00299339 0)
(1.00552 0.00242293 0)
(1.00643 0.00187885 0)
(1.00744 0.00138083 0)
(1.00862 0.000860954 0)
(1.00993 0.000319477 0)
(1.01118 -0.000218496 0)
(1.01208 -0.000694382 0)
(1.01227 -0.00108619 0)
(1.00003 0.000436146 0)
(1.0002 0.00141303 0)
(1.00095 0.00212746 0)
(1.00192 0.00245472 0)
(1.00247 0.00300301 0)