/*--------------------------------*- C++ -*----------------------------------*\
| =========                 |                                                 |
| \\      /  F ield         | OpenFOAM: The Open Source CFD Toolbox           |
|  \\    /   O peration     | Version:  v2012                                 |
|   \\  /    A nd           | Website:  www.openfoam.com                      |
|    \\/     M anipulation  |                                                 |
\*---------------------------------------------------------------------------*/
FoamFile
{
    version     2.0;
    format      ascii;
    class       volScalarField;
    location    "3.55";
    object      p;
}
// * * * * * * * * * * * * * * * * * * * * * * * * * * * * * * * * * * * * * //

dimensions      [0 2 -2 0 0 0 0];


internalField   nonuniform List<scalar> 
17600
(
1.40757e-10
-0.000104508
-0.000142062
-0.00102391
-0.00141561
-0.00183538
-0.0015567
-0.00265329
-0.0027109
-0.00366263
-0.00376254
-0.0041303
-0.00445435
-0.00401933
-0.00420407
-0.00334687
-0.00282635
-0.00114009
0.00072076
0.00443839
8.34009e-07
-0.000105208
-0.000141208
-0.00102441
-0.00141484
-0.0018367
-0.00155537
-0.00265676
-0.00270939
-0.00366775
-0.00376103
-0.00413648
-0.00445236
-0.0040419
-0.00419887
-0.00336833
-0.00281747
-0.00120831
0.00073495
0.00412565
1.64304e-06
-0.000106379
-0.000139647
-0.00102544
-0.00141398
-0.00183909
-0.00155469
-0.00266219
-0.0027084
-0.00367559
-0.00375883
-0.00414516
-0.00444924
-0.00406161
-0.00419315
-0.00339312
-0.00280892
-0.00127871
0.000733142
0.00370278
2.06366e-06
-0.000107622
-0.000138198
-0.00102717
-0.00141355
-0.00184252
-0.00155563
-0.00266873
-0.00270897
-0.00368386
-0.00375709
-0.0041533
-0.00444552
-0.00407681
-0.004188
-0.00341937
-0.00280275
-0.0013494
0.000700751
0.00328884
2.19171e-06
-0.000108912
-0.000136622
-0.00102971
-0.00141337
-0.001847
-0.00155742
-0.00267629
-0.00270987
-0.00369195
-0.00375517
-0.00416041
-0.00444137
-0.00409212
-0.00418259
-0.00344853
-0.00279855
-0.00142504
0.000637093
0.00289642
2.09089e-06
-0.000110273
-0.000134915
-0.00103291
-0.00141323
-0.00185226
-0.00155926
-0.00268451
-0.00271013
-0.00369962
-0.00375246
-0.00416658
-0.0044369
-0.00410764
-0.00417731
-0.00348032
-0.00279739
-0.00150578
0.000543561
0.00252739
1.79499e-06
-0.000111682
-0.00013306
-0.00103655
-0.00141302
-0.00185784
-0.00156083
-0.00269304
-0.00270963
-0.00370679
-0.00374916
-0.00417202
-0.00443249
-0.00412345
-0.00417289
-0.00351407
-0.00280138
-0.0015905
0.000421273
0.00217731
1.36515e-06
-0.0001131
-0.000131029
-0.00104039
-0.00141275
-0.00186346
-0.00156217
-0.00270171
-0.0027087
-0.00371358
-0.00374578
-0.00417688
-0.00442878
-0.00413947
-0.00417006
-0.00354911
-0.00281279
-0.00167789
0.000271143
0.00184012
8.86703e-07
-0.000114515
-0.000128801
-0.00104436
-0.00141251
-0.00186903
-0.00156347
-0.00271049
-0.00270771
-0.00372012
-0.00374271
-0.00418124
-0.00442624
-0.00415613
-0.0041697
-0.0035846
-0.0028336
-0.00176745
9.47929e-05
0.00150986
4.38737e-07
-0.000115944
-0.000126371
-0.00104844
-0.00141238
-0.00187455
-0.0015649
-0.00271931
-0.00270696
-0.00372633
-0.00374024
-0.00418495
-0.00442519
-0.00417146
-0.00417269
-0.0036198
-0.00286546
-0.00185961
-0.000104843
0.00118133
7.78185e-08
-0.000117418
-0.000123745
-0.00105265
-0.00141241
-0.00188008
-0.00156657
-0.00272806
-0.00270668
-0.00373202
-0.00373871
-0.00418766
-0.00442612
-0.00418575
-0.00417983
-0.00365437
-0.00290945
-0.00195591
-0.000323649
0.000850416
-1.57268e-07
-0.00011897
-0.00012093
-0.00105702
-0.00141263
-0.00188561
-0.00156851
-0.00273665
-0.00270706
-0.00373691
-0.00373852
-0.00418892
-0.00442961
-0.00419859
-0.00419184
-0.00368847
-0.00296569
-0.00205897
-0.000557021
0.000514651
-2.33683e-07
-0.000120625
-0.000117933
-0.00106152
-0.00141306
-0.00189114
-0.00157078
-0.00274492
-0.00270834
-0.0037407
-0.00374012
-0.00418826
-0.00443625
-0.00420962
-0.00420936
-0.003723
-0.00303324
-0.00217208
-0.000800822
0.000173403
-1.166e-07
-0.000122407
-0.000114759
-0.00106613
-0.00141374
-0.0018966
-0.00157341
-0.00275274
-0.00271078
-0.00374305
-0.00374401
-0.00418524
-0.00444654
-0.00421874
-0.00423264
-0.00375965
-0.00311023
-0.00229839
-0.00105232
-0.000172487
2.3256e-07
-0.000124335
-0.000111413
-0.0010708
-0.00141471
-0.00190193
-0.00157649
-0.00275991
-0.00271468
-0.00374357
-0.00375071
-0.00417951
-0.00446082
-0.00422625
-0.00426129
-0.00380083
-0.00319452
-0.00244001
-0.00131046
-0.000521081
8.54218e-07
-0.000126427
-0.0001079
-0.00107548
-0.00141603
-0.00190702
-0.00158014
-0.0027662
-0.00272038
-0.00374188
-0.00376072
-0.00417085
-0.00447926
-0.00423292
-0.00429421
-0.00384936
-0.00328461
-0.00259788
-0.00157531
-0.000870048
1.78876e-06
-0.000128695
-0.000104229
-0.0010801
-0.00141778
-0.00191176
-0.00158453
-0.00277137
-0.00272828
-0.00373757
-0.00377437
-0.00415904
-0.00450174
-0.00424016
-0.00432968
-0.00390797
-0.00338022
-0.0027714
-0.00184786
-0.00121758
3.07587e-06
-0.000131145
-0.000100414
-0.0010846
-0.00142006
-0.001916
-0.00158986
-0.0027751
-0.0027388
-0.00373032
-0.00379186
-0.00414457
-0.00452776
-0.00424988
-0.00436572
-0.0039787
-0.00348226
-0.00295839
-0.00212963
-0.00156296
4.75257e-06
-0.00013377
-9.64799e-05
-0.00108886
-0.00142298
-0.0019196
-0.00159638
-0.00277707
-0.0027523
-0.00371991
-0.00381326
-0.00412815
-0.00455614
-0.00426436
-0.00440091
-0.00406281
-0.0035925
-0.00315566
-0.00242169
-0.00190635
6.84867e-06
-0.000136541
-9.24637e-05
-0.00109277
-0.00142669
-0.00192234
-0.00160436
-0.00277698
-0.00276909
-0.00370631
-0.00383832
-0.00411068
-0.00458514
-0.00428584
-0.00443499
-0.00416067
-0.00371366
-0.00336006
-0.00272391
-0.00224872
9.3818e-06
-0.000139409
-8.84081e-05
-0.00109615
-0.00143142
-0.00192402
-0.0016141
-0.00277458
-0.00278935
-0.00368969
-0.00386654
-0.00409364
-0.00461271
-0.00431607
-0.00446849
-0.0042715
-0.00384929
-0.00356984
-0.00303492
-0.00259168
1.23574e-05
-0.000142281
-8.43864e-05
-0.00109881
-0.00143736
-0.00192445
-0.00162582
-0.00276975
-0.00281304
-0.00367047
-0.00389706
-0.00407855
-0.00463703
-0.00435619
-0.00450298
-0.00439363
-0.00400313
-0.00378553
-0.00335273
-0.00293714
1.57623e-05
-0.000145011
-8.05127e-05
-0.00110056
-0.00144472
-0.00192347
-0.00163968
-0.00276252
-0.00283994
-0.00364932
-0.00392873
-0.00406671
-0.00465705
-0.00440652
-0.00454096
-0.00452504
-0.00417809
-0.0040096
-0.00367545
-0.00328707
1.95372e-05
-0.000147387
-7.69168e-05
-0.00110119
-0.00145368
-0.00192096
-0.0016558
-0.00275301
-0.00286962
-0.00362694
-0.00396005
-0.00405947
-0.00467237
-0.00446625
-0.00458459
-0.00466378
-0.00437572
-0.004246
-0.00400238
-0.00364355
2.36073e-05
-0.000149153
-7.36827e-05
-0.00110052
-0.00146445
-0.00191695
-0.00167401
-0.0027418
-0.00290114
-0.00360481
-0.00398931
-0.0040579
-0.00468314
-0.00453422
-0.00463539
-0.00480717
-0.00459611
-0.00449969
-0.00433722
-0.00400963
2.78704e-05
-0.000150009
-7.08869e-05
-0.00109839
-0.00147713
-0.00191174
-0.00169387
-0.00272977
-0.00293341
-0.00358468
-0.00401537
-0.00406225
-0.00468984
-0.00460948
-0.00469482
-0.00494963
-0.00483133
-0.00477344
-0.00469445
-0.00439249
3.21512e-05
-0.000149584
-6.86262e-05
-0.00109469
-0.00149171
-0.00190567
-0.00171493
-0.00271755
-0.0029657
-0.0035664
-0.00403812
-0.00407215
-0.00469366
-0.00469086
-0.00476491
-0.00508954
-0.00507625
-0.00505925
-0.00505229
-0.00482134
3.62595e-05
-0.000147502
-6.68917e-05
-0.00108946
-0.00150802
-0.00189939
-0.0017365
-0.00270583
-0.00299746
-0.00354982
-0.00405807
-0.00408796
-0.00469492
-0.00477707
-0.00485024
-0.00523785
-0.00533381
-0.00536109
-0.00541616
-0.00525547
3.99533e-05
-0.000143405
-6.56671e-05
-0.00108285
-0.00152562
-0.00189383
-0.00175788
-0.0026951
-0.00302835
-0.00353488
-0.0040749
-0.0041116
-0.00469678
-0.00486966
-0.00495744
-0.0053932
-0.00559966
-0.00567891
-0.00578445
-0.00568578
4.30053e-05
-0.000136967
-6.42815e-05
-0.00107521
-0.00154398
-0.00188966
-0.00177888
-0.00268515
-0.00305885
-0.00352213
-0.00408884
-0.00414651
-0.00470654
-0.0049678
-0.00508334
-0.00555483
-0.00586944
-0.00600914
-0.00615384
-0.00610744
4.52417e-05
-0.000127888
-6.23248e-05
-0.00106714
-0.00156249
-0.00188738
-0.00179956
-0.00267558
-0.00309013
-0.00351366
-0.00410258
-0.0041935
-0.00472543
-0.00506666
-0.00522276
-0.00572324
-0.00614042
-0.00634811
-0.00652406
-0.00651556
4.65119e-05
-0.000116031
-5.91306e-05
-0.00105918
-0.00158073
-0.00188717
-0.00182068
-0.00266622
-0.00312323
-0.00351367
-0.00411721
-0.00424975
-0.00475327
-0.00516349
-0.00537158
-0.00589858
-0.00641076
-0.00669335
-0.00689585
-0.00690964
4.67324e-05
-0.000101622
-5.35037e-05
-0.00105167
-0.00159861
-0.00188884
-0.00184375
-0.0026571
-0.0031591
-0.00352439
-0.0041306
-0.00431059
-0.00478986
-0.00525824
-0.00552697
-0.00608081
-0.00667985
-0.0070437
-0.00727088
-0.00729252
4.59059e-05
-8.51715e-05
-4.42244e-05
-0.00104445
-0.00161638
-0.00189222
-0.0018707
-0.00265243
-0.0031982
-0.00354472
-0.004142
-0.00437205
-0.00483515
-0.0053523
-0.00568748
-0.00627024
-0.0069479
-0.00739727
-0.00765032
-0.00766746
4.42166e-05
-6.7394e-05
-3.03459e-05
-0.00103661
-0.00163504
-0.00189736
-0.00190408
-0.00265616
-0.00323795
-0.00357173
-0.00415154
-0.00443164
-0.00488891
-0.0054483
-0.00585296
-0.00646702
-0.00721408
-0.00775007
-0.0080331
-0.00803724
4.1968e-05
-4.93384e-05
-1.11323e-05
-0.00102688
-0.00165336
-0.00190541
-0.00194525
-0.00266857
-0.00327541
-0.00360323
-0.00416107
-0.00448877
-0.00495019
-0.00554844
-0.00602374
-0.00667071
-0.00747658
-0.00809695
-0.00841681
-0.0084049
3.95499e-05
-3.20742e-05
1.3399e-05
-0.00101396
-0.0016787
-0.00191849
-0.00199286
-0.0026883
-0.00330962
-0.0036377
-0.00417362
-0.00454432
-0.00501768
-0.00565321
-0.00619985
-0.00688116
-0.00773441
-0.00843327
-0.00879798
-0.00877267
3.77145e-05
-1.65316e-05
4.19571e-05
-0.00099686
-0.00170917
-0.00193736
-0.00204409
-0.00271506
-0.00334091
-0.00367387
-0.00419135
-0.00459992
-0.0050902
-0.00576168
-0.00638034
-0.00709876
-0.00798837
-0.00875614
-0.00917186
-0.00914007
3.74662e-05
-3.66429e-06
7.23978e-05
-0.000974622
-0.00174419
-0.00196233
-0.00209704
-0.00274878
-0.00337093
-0.003711
-0.00421505
-0.00465726
-0.00516697
-0.00587199
-0.00656291
-0.00732367
-0.00824088
-0.00906501
-0.0095334
-0.00950373
3.9733e-05
5.92268e-06
0.000102005
-0.000946534
-0.00178238
-0.00199428
-0.00215053
-0.00278893
-0.00340198
-0.00374831
-0.00424417
-0.00471755
-0.00524757
-0.00598234
-0.00674472
-0.00755517
-0.00849498
-0.00936152
-0.00987874
-0.00985864
4.53324e-05
1.20758e-05
0.000127923
-0.000912686
-0.00182227
-0.0020342
-0.00220376
-0.00283444
-0.00343601
-0.00378508
-0.00427723
-0.00478167
-0.00533228
-0.00609178
-0.0069231
-0.00779103
-0.0087527
-0.00964828
-0.0102058
-0.0101994
5.47274e-05
1.50111e-05
0.000147988
-0.000874331
-0.00186273
-0.00208234
-0.00225591
-0.00288368
-0.00347454
-0.00382136
-0.00431244
-0.00485003
-0.00542235
-0.00620045
-0.00709527
-0.00802721
-0.00901416
-0.00992816
-0.0105146
-0.0105218
6.82213e-05
1.56415e-05
0.000160991
-0.000834403
-0.00190355
-0.0021383
-0.00230576
-0.00293411
-0.00351866
-0.00385829
-0.00434802
-0.0049219
-0.00551949
-0.00630964
-0.00725837
-0.00825813
-0.00927748
-0.010204
-0.0108074
-0.0108237
8.60648e-05
1.56025e-05
0.000165154
-0.000797553
-0.00194513
-0.00220186
-0.0023524
-0.00298222
-0.00356838
-0.00389774
-0.00438241
-0.0049949
-0.0056247
-0.00642199
-0.0074109
-0.00847776
-0.00953876
-0.0104778
-0.0110879
-0.0111056
0.000108402
1.63354e-05
0.000158108
-0.000767774
-0.00198735
-0.0022729
-0.00239632
-0.00302484
-0.00362269
-0.00394194
-0.00441481
-0.00506557
-0.00573675
-0.00654059
-0.00755418
-0.00868108
-0.0097919
-0.010749
-0.0113598
-0.01137
0.000135408
1.82856e-05
0.000138272
-0.000747898
-0.00202854
-0.00235036
-0.00243909
-0.00306017
-0.00367968
-0.0039931
-0.00444622
-0.00513044
-0.00585202
-0.00666747
-0.00769221
-0.00886584
-0.0100299
-0.0110135
-0.0116247
-0.0116204
0.000166087
2.07193e-05
0.000104869
-0.000736261
-0.00206605
-0.00243443
-0.00248432
-0.00308773
-0.00373646
-0.00405231
-0.00447888
-0.00518683
-0.00596512
-0.00680205
-0.00782911
-0.00903311
-0.010247
-0.0112653
-0.011882
-0.0118603
0.000196804
2.25163e-05
6.24226e-05
-0.000731124
-0.0020991
-0.00252598
-0.00253683
-0.00310819
-0.0037898
-0.00411935
-0.00451537
-0.00523361
-0.00607033
-0.00694105
-0.00796821
-0.00918616
-0.0104404
-0.0114978
-0.0121283
-0.0120914
0.000226216
2.23318e-05
1.66742e-05
-0.000733306
-0.00212661
-0.00262324
-0.00259987
-0.00312318
-0.00383666
-0.00419307
-0.00455827
-0.00527125
-0.00616238
-0.0070793
-0.00811081
-0.00932891
-0.0106094
-0.011705
-0.0123575
-0.0123122
0.000255299
2.09576e-05
-4.55797e-05
-0.000743491
-0.00214728
-0.00272373
-0.00267535
-0.00313523
-0.00387389
-0.0042708
-0.00460926
-0.00530108
-0.00623656
-0.0072096
-0.00825527
-0.00946496
-0.0107562
-0.0118836
-0.0125635
-0.0125187
0.000281091
1.74796e-05
-0.000114049
-0.000764282
-0.00216196
-0.00282403
-0.00276445
-0.0031481
-0.00389919
-0.00434872
-0.00466969
-0.00532608
-0.00629016
-0.00732391
-0.00839667
-0.00959679
-0.0108846
-0.0120329
-0.0127409
-0.0127053
0.000299495
1.22542e-05
-0.00018716
-0.000797766
-0.00217237
-0.00292097
-0.00286731
-0.00316632
-0.00391126
-0.00442107
-0.00473939
-0.00535015
-0.00632254
-0.0074142
-0.00852631
-0.0097242
-0.0109991
-0.012155
-0.0128867
-0.0128661
0.000309597
3.86244e-06
-0.000263682
-0.000844395
-0.00218095
-0.00301198
-0.00298237
-0.00319336
-0.00390981
-0.00448082
-0.00481567
-0.00537802
-0.00633554
-0.0074741
-0.00863486
-0.00984259
-0.011102
-0.0122536
-0.0130007
-0.012997
0.000311546
-8.7593e-06
-0.000346716
-0.000905436
-0.00219025
-0.00309496
-0.00310732
-0.00323266
-0.00389711
-0.00452201
-0.00489287
-0.00541313
-0.00633351
-0.00749959
-0.008712
-0.00994192
-0.0111912
-0.0123313
-0.0130838
-0.013095
0.000304299
-2.62129e-05
-0.000438129
-0.00098181
-0.00220319
-0.00316821
-0.00323886
-0.00328691
-0.00387675
-0.00453989
-0.00496171
-0.0054542
-0.00632213
-0.00749081
-0.00874877
-0.0100106
-0.0112601
-0.0123873
-0.0131378
-0.0131595
0.00028523
-5.23765e-05
-0.000530422
-0.00107484
-0.00222308
-0.0032302
-0.00337171
-0.00335734
-0.00385377
-0.00453223
-0.0050122
-0.00549542
-0.00630597
-0.00745202
-0.00874031
-0.0100388
-0.0112988
-0.0124162
-0.0131624
-0.0131903
0.000252647
-8.61093e-05
-0.00062714
-0.00118337
-0.00225399
-0.00328198
-0.00350135
-0.00344432
-0.00383502
-0.00450008
-0.00503548
-0.00552728
-0.00628462
-0.00738762
-0.00868471
-0.0100163
-0.0112945
-0.0124108
-0.0131533
-0.0131859
0.000204414
-0.000129851
-0.000728957
-0.00130575
-0.00229962
-0.00332663
-0.00362382
-0.003545
-0.00382591
-0.00444767
-0.00502468
-0.0055381
-0.00625217
-0.00729942
-0.00858235
-0.00993577
-0.0112366
-0.0123614
-0.0131049
-0.0131437
0.00013771
-0.000191453
-0.000831206
-0.00144052
-0.00236252
-0.00336751
-0.00373563
-0.00365447
-0.0038291
-0.00438069
-0.00497718
-0.00551658
-0.00619917
-0.00718516
-0.00843334
-0.0097924
-0.011115
-0.0122561
-0.0130083
-0.013057
5.2536e-05
-0.000265616
-0.000943423
-0.00158814
-0.00244593
-0.00340921
-0.00383512
-0.00376755
-0.00384527
-0.00430461
-0.00489342
-0.00545362
-0.00611396
-0.00703808
-0.00823497
-0.00958135
-0.010919
-0.0120814
-0.0128519
-0.0129189
-5.34453e-05
-0.000359551
-0.00106294
-0.00174832
-0.00255194
-0.00345647
-0.00392196
-0.00387908
-0.00387305
-0.00422432
-0.00477524
-0.00534241
-0.00598382
-0.0068475
-0.0079804
-0.00929508
-0.0106366
-0.0118212
-0.0126196
-0.0127175
-0.000183874
-0.000475447
-0.00119273
-0.00191982
-0.00268086
-0.00351501
-0.00399872
-0.00398538
-0.00391045
-0.00414369
-0.00462595
-0.00517747
-0.00579558
-0.00659906
-0.00765753
-0.00892129
-0.0102509
-0.0114545
-0.0122894
-0.0124279
-0.000339755
-0.000616601
-0.00133528
-0.00210181
-0.00283229
-0.00359143
-0.00407098
-0.00408455
-0.00395645
-0.00406648
-0.00445052
-0.00495601
-0.00553629
-0.00627479
-0.00724791
-0.00844004
-0.00973663
-0.0109493
-0.0118199
-0.0120128
-0.000521307
-0.00078299
-0.00149949
-0.00229549
-0.00300456
-0.00369039
-0.00414462
-0.00417759
-0.00401161
-0.00400047
-0.00425779
-0.00467942
-0.00519501
-0.00585301
-0.00672367
-0.00782019
-0.00905863
-0.0102627
-0.0111719
-0.0114384
-0.000731523
-0.000977566
-0.00168742
-0.00250002
-0.00319547
-0.00381354
-0.00422576
-0.00426708
-0.00407805
-0.00395917
-0.00406439
-0.00435623
-0.00476405
-0.00530651
-0.00604628
-0.00701441
-0.00816422
-0.00934186
-0.0102942
-0.0106621
-0.000989178
-0.00120596
-0.00189163
-0.002706
-0.0034024
-0.00396168
-0.00431979
-0.00435614
-0.00415434
-0.00395398
-0.00390015
-0.00400721
-0.00423663
-0.00459773
-0.00515595
-0.00594591
-0.00696063
-0.00809043
-0.00909979
-0.00961976
-0.001299
-0.00151986
-0.00210322
-0.00291415
-0.00362483
-0.0041305
-0.00442791
-0.00444922
-0.00423918
-0.00398431
-0.00381146
-0.00370252
-0.00365097
-0.00370345
-0.00393955
-0.00445042
-0.00525096
-0.00628897
-0.00738907
-0.00817304
-0.00161302
-0.0018126
-0.00241222
-0.00319368
-0.00386621
-0.00431311
-0.00454818
-0.00455106
-0.00433379
-0.0040389
-0.00381275
-0.00357902
-0.00321807
-0.00271767
-0.00226929
-0.00211661
-0.00240868
-0.00312639
-0.00412034
-0.00513477
-0.00196581
-0.00216231
-0.00277315
-0.0035197
-0.0041239
-0.00450114
-0.0046751
-0.00466612
-0.00445373
-0.00409843
-0.00377403
-0.00366965
-0.00345547
-0.00257823
-0.00134126
-0.000353269
0.000167232
0.000404497
0.000601382
0.000759917
-0.00241506
-0.00257817
-0.00315529
-0.00384391
-0.00437709
-0.00468044
-0.00480048
-0.00476366
-0.00460895
-0.00422787
-0.00325221
-0.00205683
-0.00101283
-0.000171822
0.000548609
0.00127316
0.00205336
0.00282826
0.00343363
0.00356005
-0.00296252
-0.00306587
-0.00355856
-0.00415392
-0.00460555
-0.00482173
-0.00489348
-0.00472166
-0.00394262
-0.00288041
-0.00186946
-0.00105138
-0.000384565
0.000280013
0.0010962
0.00207914
0.00314483
0.00413338
0.00481242
0.00485295
-0.00361907
-0.00368114
-0.00397927
-0.00436974
-0.00475557
-0.00482854
-0.00435712
-0.00366975
-0.00295012
-0.00226627
-0.00162612
-0.000952347
-0.000171293
0.000764809
0.00184435
0.00302541
0.00421577
0.00526303
0.00593534
0.00588961
-0.00438842
-0.0044758
-0.00447285
-0.00438092
-0.00423657
-0.00401193
-0.00366364
-0.00323782
-0.00276378
-0.00219189
-0.00148741
-0.000638653
0.000344434
0.00143886
0.00262795
0.00387594
0.0050974
0.00613838
0.00676327
0.00664004
-0.00513417
-0.00513763
-0.00473098
-0.00425263
-0.00386687
-0.00357943
-0.00332027
-0.00299427
-0.0025455
-0.00193034
-0.00113451
-0.000185907
0.000881344
0.00204499
0.00328354
0.00455158
0.00576134
0.00676545
0.00733761
0.00714901
-0.00572652
-0.0055875
-0.00500506
-0.00429391
-0.0037107
-0.00330923
-0.00299947
-0.002661
-0.00219574
-0.00155925
-0.000745234
0.000228598
0.00133104
0.002531
0.00379309
0.00506524
0.00625979
0.00723283
0.00776195
0.00752135
-0.00620005
-0.00597545
-0.00528406
-0.00440858
-0.00363996
-0.00308667
-0.00268549
-0.00230416
-0.00183245
-0.00120516
-0.000398811
0.000576646
0.00169384
0.00291531
0.00419546
0.00547329
0.00665733
0.00760485
0.00809741
0.00781359
-0.0066024
-0.0063172
-0.00551665
-0.00451336
-0.00359636
-0.00290745
-0.00241409
-0.0019895
-0.00151001
-0.00089075
-9.4928e-05
0.00087794
0.00200171
0.0032348
0.00452504
0.00580506
0.00697956
0.00790578
0.00836818
0.00804936
-0.00692588
-0.00658767
-0.00571258
-0.00460827
-0.00357599
-0.00277853
-0.00220419
-0.00173463
-0.00123862
-0.0006212
0.000165576
0.00113029
0.00225204
0.00348846
0.00478231
0.00606164
0.00722804
0.00813813
0.00857809
0.00823342
-0.00716737
-0.00679747
-0.00586621
-0.0046923
-0.00358209
-0.00270603
-0.00206552
-0.00154988
-0.00102636
-0.000393794
0.000399035
0.00136306
0.00247958
0.00370976
0.00499877
0.00627193
0.00742893
0.0083259
0.00874961
0.00838671
-0.00731667
-0.0069363
-0.00598105
-0.00477345
-0.00362352
-0.00270549
-0.00202446
-0.00147352
-0.000922894
-0.000270349
0.000540732
0.00152242
0.00265351
0.00389126
0.00517844
0.00644374
0.0075902
0.00847701
0.00889271
0.00852391
0.00837973
0.00336333
-0.00408235
-0.00927731
-0.0103188
-0.00905482
-0.00756472
-0.00652778
-0.00591415
-0.00557691
-0.00541209
-0.00535492
-0.00536951
-0.00544001
-0.00555117
-0.00568027
-0.00580871
-0.00593201
-0.00605405
-0.00617663
-0.00629793
-0.00641654
-0.00653319
-0.0066488
-0.00676315
-0.00687537
-0.00698512
-0.00709314
-0.00720073
-0.00730833
-0.00741523
-0.0075204
-0.00762388
-0.00772664
-0.0078295
-0.00793229
-0.00803431
-0.00813487
-0.00823391
-0.0083315
-0.00842756
-0.00852181
-0.00861397
-0.00870399
-0.00879199
-0.00887802
-0.00896217
-0.00904461
-0.00912559
-0.00920532
-0.00928383
-0.0093614
-0.00943837
-0.00951494
-0.00959081
-0.00966581
-0.00973993
-0.00981362
-0.00988703
-0.00996011
-0.0100325
-0.0101043
-0.0101757
-0.0102472
-0.0103186
-0.0103898
-0.0104608
-0.0105318
-0.0106031
-0.0106746
-0.010746
-0.0108172
-0.0108885
-0.0109599
-0.0110317
-0.0111035
-0.0111753
-0.0112469
-0.0113187
-0.0113906
-0.0114628
-0.0115349
-0.0116072
-0.0116793
-0.0117517
-0.0118241
-0.0118966
-0.0119691
-0.0120417
-0.0121143
-0.0121868
-0.0122592
-0.0123317
-0.0124043
-0.012477
-0.0125498
-0.0126226
-0.0126957
-0.012769
-0.0128427
-0.0129166
-0.0129908
-0.0130653
-0.01314
-0.013215
-0.0132901
-0.0133656
-0.0134412
-0.0135171
-0.0135929
-0.0136692
-0.0137454
-0.0138221
-0.0138989
-0.0139761
-0.0140532
-0.0141307
-0.0142084
-0.0142864
-0.0143646
-0.0144429
-0.0145216
-0.0146003
-0.0146796
-0.0147588
-0.0148387
-0.0149186
-0.0149992
-0.01508
-0.0151613
-0.0152429
-0.0153246
-0.0154068
-0.0154889
-0.0155717
-0.0156542
-0.0157377
-0.0158208
-0.0159048
-0.0159887
-0.0160733
-0.0161581
-0.0162429
-0.0163282
-0.0164133
-0.0164994
-0.0165851
-0.0166719
-0.0167583
-0.0168456
-0.0169331
-0.0170208
-0.0171091
-0.0171967
-0.0172857
-0.017374
-0.0174641
-0.0175531
-0.0176436
-0.0177341
-0.0178252
-0.0179168
-0.0180078
-0.0181008
-0.0181924
-0.0182862
-0.0183786
-0.0184729
-0.0185672
-0.0186614
-0.018757
-0.0188507
-0.0189475
-0.0190421
-0.0191394
-0.0192356
-0.0193327
-0.0194312
-0.0195276
-0.0196275
-0.0197241
-0.0198247
-0.0199228
-0.0200221
-0.0201228
-0.0202204
-0.0203229
-0.02042
-0.0205215
-0.0206213
-0.0207196
-0.0208218
-0.0209166
-0.0210186
-0.0211107
-0.021208
-0.0212955
-0.0213799
-0.021454
-0.0215192
0.00765322
0.00318928
-0.0040016
-0.00914374
-0.0102406
-0.00901764
-0.00754148
-0.00651153
-0.00590246
-0.00556798
-0.00540485
-0.00534876
-0.00536407
-0.0054351
-0.00554671
-0.00567619
-0.00580496
-0.00592856
-0.00605086
-0.00617368
-0.0062952
-0.00641402
-0.00653085
-0.00664663
-0.00676113
-0.0068735
-0.00698338
-0.00709152
-0.0071992
-0.0073069
-0.00741388
-0.00751913
-0.00762269
-0.00772551
-0.00782842
-0.00793127
-0.00803333
-0.00813394
-0.00823302
-0.00833064
-0.00842674
-0.00852102
-0.00861322
-0.00870326
-0.00879129
-0.00887735
-0.00896152
-0.00904398
-0.00912498
-0.00920474
-0.00928327
-0.00936086
-0.00943785
-0.00951443
-0.00959032
-0.00966533
-0.00973947
-0.00981317
-0.0098866
-0.0099597
-0.0100321
-0.0101039
-0.0101753
-0.0102468
-0.0103182
-0.0103895
-0.0104604
-0.0105315
-0.0106028
-0.0106743
-0.0107457
-0.0108169
-0.0108882
-0.0109597
-0.0110314
-0.0111032
-0.011175
-0.0112467
-0.0113185
-0.0113904
-0.0114625
-0.0115347
-0.0116069
-0.0116791
-0.0117515
-0.0118239
-0.0118964
-0.0119689
-0.0120415
-0.0121141
-0.0121866
-0.0122591
-0.0123315
-0.0124041
-0.0124768
-0.0125496
-0.0126224
-0.0126955
-0.0127689
-0.0128426
-0.0129164
-0.0129907
-0.0130651
-0.0131399
-0.0132148
-0.01329
-0.0133655
-0.013441
-0.0135169
-0.0135928
-0.0136691
-0.0137453
-0.013822
-0.0138988
-0.0139759
-0.0140531
-0.0141306
-0.0142083
-0.0142863
-0.0143645
-0.0144428
-0.0145215
-0.0146002
-0.0146795
-0.0147587
-0.0148386
-0.0149185
-0.0149991
-0.0150799
-0.0151612
-0.0152428
-0.0153245
-0.0154067
-0.0154888
-0.0155716
-0.0156541
-0.0157376
-0.0158208
-0.0159048
-0.0159886
-0.0160732
-0.016158
-0.0162429
-0.0163282
-0.0164132
-0.0164994
-0.0165851
-0.0166718
-0.0167582
-0.0168456
-0.016933
-0.0170208
-0.017109
-0.0171967
-0.0172857
-0.017374
-0.0174641
-0.0175531
-0.0176435
-0.017734
-0.0178251
-0.0179168
-0.0180078
-0.0181008
-0.0181923
-0.0182861
-0.0183786
-0.0184729
-0.0185672
-0.0186614
-0.018757
-0.0188507
-0.0189475
-0.0190421
-0.0191394
-0.0192356
-0.0193327
-0.0194312
-0.0195275
-0.0196275
-0.0197241
-0.0198247
-0.0199228
-0.0200221
-0.0201228
-0.0202204
-0.0203228
-0.02042
-0.0205215
-0.0206212
-0.0207196
-0.0208218
-0.0209166
-0.0210186
-0.0211107
-0.021208
-0.0212955
-0.0213799
-0.021454
-0.0215192
0.00688808
0.00301531
-0.00382554
-0.00889102
-0.0100986
-0.00896072
-0.0075101
-0.00648779
-0.00588422
-0.00555423
-0.00539436
-0.00534056
-0.00535745
-0.00542953
-0.00554185
-0.00567184
-0.00580099
-0.00592491
-0.0060475
-0.0061706
-0.00629236
-0.00641138
-0.0065284
-0.00664436
-0.00675903
-0.00687155
-0.00698156
-0.00708984
-0.00719764
-0.00730544
-0.00741252
-0.00751785
-0.00762148
-0.00772437
-0.00782735
-0.00793025
-0.00803236
-0.00813302
-0.00823214
-0.00832979
-0.00842593
-0.00852025
-0.00861248
-0.00870255
-0.0087906
-0.0088767
-0.00896089
-0.00904337
-0.0091244
-0.00920417
-0.00928273
-0.00936033
-0.00943734
-0.00951393
-0.00958984
-0.00966487
-0.00973902
-0.00981274
-0.00988618
-0.00995929
-0.0100317
-0.0101035
-0.0101749
-0.0102465
-0.0103179
-0.0103891
-0.0104601
-0.0105312
-0.0106025
-0.010674
-0.0107454
-0.0108166
-0.0108879
-0.0109594
-0.0110312
-0.011103
-0.0111748
-0.0112464
-0.0113182
-0.0113901
-0.0114623
-0.0115345
-0.0116067
-0.0116789
-0.0117513
-0.0118237
-0.0118962
-0.0119687
-0.0120413
-0.0121139
-0.0121864
-0.0122589
-0.0123313
-0.012404
-0.0124766
-0.0125495
-0.0126223
-0.0126954
-0.0127687
-0.0128424
-0.0129163
-0.0129905
-0.013065
-0.0131398
-0.0132147
-0.0132898
-0.0133653
-0.0134409
-0.0135168
-0.0135927
-0.0136689
-0.0137452
-0.0138219
-0.0138987
-0.0139758
-0.014053
-0.0141305
-0.0142082
-0.0142862
-0.0143645
-0.0144427
-0.0145214
-0.0146001
-0.0146794
-0.0147586
-0.0148386
-0.0149185
-0.0149991
-0.0150798
-0.0151611
-0.0152427
-0.0153245
-0.0154067
-0.0154887
-0.0155716
-0.0156541
-0.0157376
-0.0158207
-0.0159047
-0.0159885
-0.0160731
-0.016158
-0.0162428
-0.0163281
-0.0164132
-0.0164993
-0.016585
-0.0166718
-0.0167582
-0.0168455
-0.016933
-0.0170207
-0.017109
-0.0171966
-0.0172856
-0.0173739
-0.0174641
-0.017553
-0.0176435
-0.017734
-0.0178251
-0.0179168
-0.0180077
-0.0181007
-0.0181923
-0.0182861
-0.0183785
-0.0184729
-0.0185671
-0.0186613
-0.0187569
-0.0188506
-0.0189475
-0.0190421
-0.0191394
-0.0192355
-0.0193327
-0.0194312
-0.0195275
-0.0196275
-0.019724
-0.0198246
-0.0199227
-0.020022
-0.0201227
-0.0202204
-0.0203228
-0.0204199
-0.0205215
-0.0206212
-0.0207195
-0.0208218
-0.0209166
-0.0210186
-0.0211106
-0.021208
-0.0212955
-0.0213799
-0.021454
-0.0215192
0.00615973
0.00286167
-0.00358068
-0.00855506
-0.00989918
-0.00887847
-0.00746423
-0.00645121
-0.00585521
-0.00553257
-0.00537844
-0.00532875
-0.00534852
-0.00542251
-0.00553598
-0.00566665
-0.00579629
-0.00592062
-0.00604357
-0.00616699
-0.00628903
-0.00640829
-0.00652552
-0.00664168
-0.00675653
-0.00686924
-0.00697943
-0.00708788
-0.00719583
-0.00730377
-0.00741096
-0.0075164
-0.00762013
-0.00772311
-0.00782617
-0.00792915
-0.00803132
-0.00813203
-0.00823121
-0.0083289
-0.00842508
-0.00851945
-0.00861171
-0.00870181
-0.00878989
-0.00887602
-0.00896024
-0.00904275
-0.00912379
-0.00920359
-0.00928217
-0.00935979
-0.00943682
-0.00951343
-0.00958935
-0.0096644
-0.00973857
-0.0098123
-0.00988576
-0.00995888
-0.0100313
-0.0101031
-0.0101746
-0.0102461
-0.0103176
-0.0103888
-0.0104598
-0.0105308
-0.0106022
-0.0106737
-0.0107451
-0.0108163
-0.0108876
-0.0109591
-0.0110309
-0.0111027
-0.0111745
-0.0112462
-0.011318
-0.0113899
-0.0114621
-0.0115343
-0.0116065
-0.0116787
-0.0117511
-0.0118235
-0.011896
-0.0119685
-0.0120411
-0.0121137
-0.0121863
-0.0122587
-0.0123312
-0.0124038
-0.0124765
-0.0125493
-0.0126221
-0.0126953
-0.0127686
-0.0128423
-0.0129162
-0.0129904
-0.0130649
-0.0131396
-0.0132146
-0.0132897
-0.0133652
-0.0134408
-0.0135167
-0.0135926
-0.0136688
-0.0137451
-0.0138218
-0.0138986
-0.0139757
-0.0140529
-0.0141304
-0.0142081
-0.0142861
-0.0143644
-0.0144426
-0.0145214
-0.0146
-0.0146793
-0.0147585
-0.0148385
-0.0149184
-0.014999
-0.0150798
-0.015161
-0.0152427
-0.0153244
-0.0154066
-0.0154887
-0.0155715
-0.015654
-0.0157375
-0.0158206
-0.0159046
-0.0159885
-0.0160731
-0.0161579
-0.0162428
-0.016328
-0.0164131
-0.0164993
-0.016585
-0.0166717
-0.0167581
-0.0168455
-0.0169329
-0.0170207
-0.0171089
-0.0171966
-0.0172856
-0.0173739
-0.017464
-0.017553
-0.0176435
-0.0177339
-0.0178251
-0.0179167
-0.0180077
-0.0181007
-0.0181923
-0.0182861
-0.0183785
-0.0184728
-0.0185671
-0.0186613
-0.0187569
-0.0188506
-0.0189474
-0.019042
-0.0191393
-0.0192355
-0.0193326
-0.0194311
-0.0195275
-0.0196274
-0.019724
-0.0198246
-0.0199227
-0.020022
-0.0201227
-0.0202203
-0.0203228
-0.0204199
-0.0205215
-0.0206212
-0.0207195
-0.0208218
-0.0209165
-0.0210186
-0.0211106
-0.021208
-0.0212955
-0.0213799
-0.0214539
-0.0215192
0.00545909
0.0026969
-0.00331683
-0.0081877
-0.00967325
-0.00878372
-0.00741041
-0.00640492
-0.00581611
-0.00550239
-0.00535595
-0.00531208
-0.00533612
-0.00541304
-0.00552827
-0.00565993
-0.00579023
-0.00591511
-0.00603855
-0.00616236
-0.00628474
-0.0064043
-0.00652179
-0.00663817
-0.00675323
-0.00686615
-0.00697659
-0.00708528
-0.00719347
-0.00730158
-0.00740893
-0.00751453
-0.00761841
-0.00772153
-0.00782471
-0.00792779
-0.00803005
-0.00813084
-0.00823008
-0.00832784
-0.00842407
-0.00851849
-0.00861081
-0.00870095
-0.00878907
-0.00887523
-0.00895949
-0.00904203
-0.0091231
-0.00920293
-0.00928153
-0.00935918
-0.00943623
-0.00951286
-0.00958881
-0.00966387
-0.00973805
-0.00981181
-0.00988528
-0.00995842
-0.0100309
-0.0101027
-0.0101742
-0.0102457
-0.0103172
-0.0103884
-0.0104594
-0.0105305
-0.0106018
-0.0106733
-0.0107448
-0.010816
-0.0108873
-0.0109588
-0.0110306
-0.0111024
-0.0111743
-0.0112459
-0.0113177
-0.0113897
-0.0114619
-0.011534
-0.0116063
-0.0116785
-0.0117509
-0.0118233
-0.0118958
-0.0119683
-0.0120409
-0.0121135
-0.0121861
-0.0122586
-0.012331
-0.0124036
-0.0124763
-0.0125492
-0.012622
-0.0126951
-0.0127684
-0.0128421
-0.012916
-0.0129903
-0.0130648
-0.0131395
-0.0132145
-0.0132896