/*--------------------------------*- C++ -*----------------------------------*\
| =========                 |                                                 |
| \\      /  F ield         | OpenFOAM: The Open Source CFD Toolbox           |
|  \\    /   O peration     | Version:  v2012                                 |
|   \\  /    A nd           | Website:  www.openfoam.com                      |
|    \\/     M anipulation  |                                                 |
\*---------------------------------------------------------------------------*/
FoamFile
{
    version     2.0;
    format      ascii;
    class       surfaceScalarField;
    location    "3.55";
    object      phi;
}
// * * * * * * * * * * * * * * * * * * * * * * * * * * * * * * * * * * * * * //

dimensions      [0 3 -1 0 0 0 0];
oriented        oriented;


internalField   nonuniform List<scalar> 
34900
(
1.17441e-06
2.21783e-08
1.16691e-06
-1.36805e-07
1.17083e-06
3.5089e-09
1.16927e-06
-1.11289e-07
1.17547e-06
1.94388e-07
1.1695e-06
-1.01478e-07
1.17721e-06
3.7429e-07
1.1616e-06
-2.13304e-07
1.17084e-06
3.48418e-07
1.15113e-06
-1.72881e-07
1.1599e-06
1.89639e-07
1.14258e-06
-6.14303e-08
1.15102e-06
8.04608e-08
1.1355e-06
9.37284e-09
1.14386e-06
2.67625e-08
1.12953e-06
2.28113e-08
1.13714e-06
4.71657e-08
1.12227e-06
1.22679e-08
1.12518e-06
7.25849e-08
1.83154e-08
1.08709e-06
1.22919e-06
1.7246e-08
1.22287e-06
-1.30476e-07
1.22567e-06
7.06716e-10
1.2259e-06
-1.11522e-07
1.22971e-06
1.90582e-07
1.2259e-06
-9.76709e-08
1.22965e-06
3.70535e-07
1.21717e-06
-2.00818e-07
1.22088e-06
3.4471e-07
1.20689e-06
-1.58898e-07
1.20834e-06
1.88195e-07
1.20033e-06
-5.34276e-08
1.19918e-06
8.16145e-08
1.19677e-06
1.17869e-08
1.19182e-06
3.17105e-08
1.19526e-06
1.93731e-08
1.1831e-06
5.93257e-08
1.19207e-06
3.29067e-09
1.16669e-06
9.79707e-08
1.41389e-08
1.17087e-06
1.28531e-06
1.47183e-08
1.28265e-06
-1.27811e-07
1.28266e-06
6.88885e-10
1.28579e-06
-1.14653e-07
1.28604e-06
1.90334e-07
1.28569e-06
-9.73236e-08
1.28548e-06
3.70754e-07
1.27717e-06
-1.92511e-07
1.27571e-06
3.46166e-07
1.26842e-06
-1.51602e-07
1.26317e-06
1.93441e-07
1.2631e-06
-5.33523e-08
1.25536e-06
8.93532e-08
1.26007e-06
7.07314e-09
1.25003e-06
4.17503e-08
1.2568e-06
1.26054e-08
1.24528e-06
7.08398e-08
1.24973e-06
-1.15546e-09
1.23705e-06
1.1065e-07
2.72053e-08
1.22399e-06
1.34355e-06
1.52686e-08
1.34546e-06
-1.29718e-07
1.34212e-06
4.03323e-09
1.34817e-06
-1.20703e-07
1.34531e-06
1.93193e-07
1.34807e-06
-1.00087e-07
1.34599e-06
3.72838e-07
1.34134e-06
-1.87869e-07
1.3378e-06
3.49708e-07
1.33477e-06
-1.4857e-07
1.32757e-06
2.00637e-07
1.32954e-06
-5.53236e-08
1.32209e-06
9.68038e-08
1.32566e-06
3.50713e-09
1.31847e-06
4.89441e-08
1.32096e-06
1.01138e-08
1.31539e-06
7.6412e-08
1.31365e-06
5.82299e-10
1.30816e-06
1.16133e-07
4.42818e-08
1.29109e-06
1.40502e-06
1.86014e-08
1.41053e-06
-1.35224e-07
1.40472e-06
9.84386e-09
1.412e-06
-1.27982e-07
1.40804e-06
1.97146e-07
1.41207e-06
-1.04111e-07
1.4111e-06
3.73802e-07
1.40828e-06
-1.85049e-07
1.40613e-06
3.51859e-07
1.40406e-06
-1.46497e-07
1.39891e-06
2.05782e-07
1.39921e-06
-5.56162e-08
1.39476e-06
1.0125e-07
1.39541e-06
2.8581e-09
1.39114e-06
5.32163e-08
1.39078e-06
1.04681e-08
1.38764e-06
7.95514e-08
1.38356e-06
4.66554e-09
1.37997e-06
1.19724e-07
6.14944e-08
1.36276e-06
1.47085e-06
2.3423e-08
1.47775e-06
-1.42121e-07
1.47124e-06
1.63583e-08
1.47748e-06
-1.34229e-07
1.47443e-06
2.00201e-07
1.47787e-06
-1.07551e-07
1.47971e-06
3.71964e-07
1.47734e-06
-1.82687e-07
1.478e-06
3.51209e-07
1.47537e-06
-1.43871e-07
1.47315e-06
2.08002e-07
1.47144e-06
-5.39072e-08
1.46934e-06
1.0335e-07
1.46821e-06
3.99065e-09
1.46535e-06
5.60762e-08
1.46376e-06
1.20518e-08
1.46156e-06
8.17541e-08
1.45602e-06
1.0204e-08
1.45387e-06
1.21873e-07
7.88504e-08
1.43652e-06
1.54156e-06
2.80784e-08
1.54772e-06
-1.48283e-07
1.54204e-06
2.20409e-08
1.54579e-06
-1.37973e-07
1.5444e-06
2.0159e-07
1.54638e-06
-1.09537e-07
1.55089e-06
3.6746e-07
1.54856e-06
-1.8036e-07
1.55172e-06
3.4805e-07
1.54848e-06
-1.40637e-07
1.54859e-06
2.07893e-07
1.54568e-06
-5.0991e-08
1.54508e-06
1.03952e-07
1.54303e-06
6.03686e-09
1.54111e-06
5.7992e-08
1.53869e-06
1.4473e-08
1.53742e-06
8.30304e-08
1.53046e-06
1.71561e-08
1.52972e-06
1.22617e-07
9.59691e-08
1.5126e-06
1.61681e-06
3.13937e-08
1.62113e-06
-1.52602e-07
1.61694e-06
2.62314e-08
1.61804e-06
-1.39076e-07
1.61797e-06
2.01667e-07
1.61854e-06
-1.10106e-07
1.6247e-06
3.61296e-07
1.62239e-06
-1.7805e-07
1.62735e-06
3.43093e-07
1.62378e-06
-1.37074e-07
1.62566e-06
2.06022e-07
1.62211e-06
-4.74484e-08
1.62273e-06
1.03331e-07
1.62008e-06
8.68852e-09
1.61916e-06
5.89125e-08
1.61593e-06
1.77002e-08
1.6157e-06
8.32601e-08
1.6075e-06
2.53637e-08
1.60784e-06
1.22271e-07
1.12239e-07
1.59157e-06
1.69589e-06
3.3077e-08
1.69834e-06
-1.55051e-07
1.69554e-06
2.90294e-08
1.69481e-06
-1.38343e-07
1.6954e-06
2.01073e-07
1.69497e-06
-1.09672e-07
1.70188e-06
3.54384e-07
1.69953e-06
-1.75696e-07
1.70576e-06
3.36855e-07
1.70196e-06
-1.33267e-07
1.70533e-06
2.02655e-07
1.70136e-06
-4.34794e-08
1.70321e-06
1.01481e-07
1.70001e-06
1.18881e-08
1.70019e-06
5.87301e-08
1.69616e-06
2.17309e-08
1.69697e-06
8.24467e-08
1.68778e-06
3.45532e-08
1.68879e-06
1.21266e-07
1.27094e-07
1.67393e-06
1.77829e-06
3.35064e-08
1.77941e-06
-1.56173e-07
1.77761e-06
3.0831e-08
1.77608e-06
-1.36808e-07
1.77699e-06
2.00159e-07
1.77596e-06
-1.08643e-07
1.78313e-06
3.4722e-07
1.78055e-06
-1.73118e-07
1.78778e-06
3.2962e-07
1.78361e-06
-1.29094e-07
1.78837e-06
1.97891e-07
1.78394e-06
-3.90451e-08
1.78707e-06
9.83536e-08
1.78327e-06
1.56809e-08
1.78461e-06
5.73924e-08
1.7798e-06
2.654e-08
1.78152e-06
8.07288e-08
1.77171e-06
4.43615e-08
1.77288e-06
1.20096e-07
1.40056e-07
1.75992e-06
1.864e-06
3.3257e-08
1.86438e-06
-1.56551e-07
1.86321e-06
3.19997e-08
1.86163e-06
-1.35233e-07
1.86285e-06
1.98938e-07
1.86152e-06
-1.07306e-07
1.86878e-06
3.39954e-07
1.86578e-06
-1.70114e-07
1.87386e-06
3.21536e-07
1.86911e-06
-1.24338e-07
1.87521e-06
1.91788e-07
1.87017e-06
-3.40021e-08
1.87459e-06
9.39317e-08
1.87013e-06
2.01448e-08
1.87258e-06
5.49347e-08
1.86708e-06
3.20402e-08
1.86942e-06
7.83874e-08
1.85944e-06
5.43439e-08
1.86025e-06
1.19283e-07
1.50771e-07
1.84954e-06
1.95333e-06
3.27664e-08
1.95335e-06
-1.5657e-07
1.95257e-06
3.27817e-08
1.95132e-06
-1.33982e-07
1.95296e-06
1.9729e-07
1.95148e-06
-1.05822e-07
1.95889e-06
3.32541e-07
1.95531e-06
-1.66529e-07
1.96419e-06
3.12658e-07
1.95864e-06
-1.18792e-07
1.96603e-06
1.84401e-07
1.96022e-06
-2.81938e-08
1.9659e-06
8.82531e-08
1.96072e-06
2.53256e-08
1.96415e-06
5.15001e-08
1.95814e-06
3.80479e-08
1.9607e-06
7.58275e-08
1.95103e-06
6.4016e-08
1.95103e-06
1.19284e-07
1.59093e-07
1.94271e-06
2.0467e-06
3.22527e-08
2.04655e-06
-1.56422e-07
2.046e-06
3.33326e-08
2.04513e-06
-1.33111e-07
2.04731e-06
1.95114e-07
2.04573e-06
-1.04244e-07
2.05342e-06
3.24853e-07
2.04915e-06
-1.62264e-07
2.05883e-06
3.02981e-07
2.05235e-06
-1.1231e-07
2.06097e-06
1.75783e-07
2.05428e-06
-2.15043e-08
2.06113e-06
8.14056e-08
2.05526e-06
3.11949e-08
2.05941e-06
4.73416e-08
2.05319e-06
4.42728e-08
2.05549e-06
7.35295e-08
2.04658e-06
7.29251e-08
2.04548e-06
1.20384e-07
1.6513e-07
2.03944e-06
2.14447e-06
3.178e-08
2.14424e-06
-1.56187e-07
2.14382e-06
3.37488e-08
2.14324e-06
-1.32524e-07
2.14598e-06
1.92372e-07
2.14428e-06
-1.0255e-07
2.15239e-06
3.16744e-07
2.14739e-06
-1.57264e-07
2.15792e-06
2.92456e-07
2.15042e-06
-1.04808e-07
2.16022e-06
1.65975e-07
2.1526e-06
-1.38845e-08
2.16048e-06
7.35265e-08
2.15406e-06
3.76209e-08
2.15859e-06
4.28109e-08
2.15252e-06
5.03395e-08
2.15407e-06
7.19796e-08
2.14628e-06
8.07201e-08
2.14401e-06
1.22652e-07
1.69223e-07
2.13991e-06
2.24692e-06
3.13439e-08
2.24664e-06
-1.559e-07
2.24631e-06
3.40805e-08
2.24586e-06
-1.32078e-07
2.24917e-06
1.89063e-07
2.24729e-06
-1.00671e-07
2.25595e-06
3.08079e-07
2.25018e-06
-1.51488e-07
2.26163e-06
2.81009e-07
2.25307e-06
-9.62492e-08
2.26403e-06
1.55014e-07
2.25551e-06
-5.36219e-09
2.26423e-06
6.48073e-08
2.25748e-06
4.43613e-08
2.26196e-06
3.83348e-08
2.25646e-06
5.58376e-08
2.25685e-06
7.15922e-08
2.25037e-06
8.72029e-08
2.24707e-06
1.25953e-07
1.71854e-07
2.24444e-06
2.3543e-06
3.09221e-08
2.35397e-06
-1.55568e-07
2.35371e-06
3.43387e-08
2.35327e-06
-1.31643e-07
2.35715e-06
1.85185e-07
2.355e-06
-9.85159e-08
2.36433e-06
2.98743e-07
2.35774e-06
-1.44897e-07
2.37019e-06
2.68564e-07
2.36057e-06
-8.66322e-08
2.37263e-06
1.4295e-07
2.36332e-06
3.94916e-09
2.37262e-06
5.55113e-08
2.36591e-06
5.10643e-08
2.36987e-06
3.43845e-08
2.36531e-06
6.03878e-08
2.36428e-06
7.26267e-08
2.3591e-06
9.23783e-08
2.35509e-06
1.29971e-07
1.73552e-07
2.35339e-06
2.46683e-06
3.04923e-08
2.46644e-06
-1.55183e-07
2.46628e-06
3.45014e-08
2.46574e-06
-1.31106e-07
2.47021e-06
1.80716e-07
2.46768e-06
-9.59826e-08
2.47779e-06
2.8863e-07
2.47034e-06
-1.37447e-07
2.48385e-06
2.55057e-07
2.4732e-06
-7.59901e-08
2.48628e-06
1.29876e-07
2.47639e-06
1.38418e-08
2.48592e-06
4.59811e-08
2.47968e-06
5.72984e-08
2.48264e-06
3.14237e-08
2.47932e-06
6.37104e-08
2.47682e-06
7.51224e-08
2.47272e-06
9.64806e-08
2.46843e-06
1.34262e-07
1.74803e-07
2.46718e-06
2.58475e-06
3.00346e-08
2.58428e-06
-1.54714e-07
2.58427e-06
3.45172e-08
2.58353e-06
-1.30367e-07
2.58864e-06
1.75603e-07
2.58562e-06
-9.29666e-08
2.59661e-06
2.77648e-07
2.58826e-06
-1.29096e-07
2.60286e-06
2.40456e-07
2.59127e-06
-6.44036e-08
2.60519e-06
1.15956e-07
2.59503e-06
2.40048e-08
2.60437e-06
3.66395e-08
2.59907e-06
6.25925e-08
2.60065e-06
2.98496e-08
2.59867e-06
6.56846e-08
2.59491e-06
7.88835e-08
2.59148e-06
9.99174e-08
2.58739e-06
1.38347e-07
1.75985e-07
2.58621e-06
2.70833e-06
2.95301e-08
2.70773e-06
-1.5411e-07
2.70794e-06
3.43075e-08
2.7069e-06
-1.29326e-07
2.71273e-06
1.69767e-07
2.70913e-06
-8.93631e-08
2.72107e-06
2.65713e-07
2.71179e-06
-1.1982e-07
2.72747e-06
2.24779e-07
2.71508e-06
-5.20195e-08
2.7296e-06
1.01443e-07
2.71956e-06
3.40365e-08
2.72825e-06
2.79515e-08
2.72433e-06
6.65091e-08
2.72426e-06
2.99229e-08
2.72356e-06
6.63887e-08
2.71892e-06
8.35226e-08
2.71568e-06
1.03153e-07
2.71219e-06
1.41845e-07
1.77305e-07
2.71087e-06
2.83784e-06
2.89588e-08
2.83703e-06
-1.53299e-07
2.83757e-06
3.37678e-08
2.83612e-06
-1.27881e-07
2.84278e-06
1.63109e-07
2.83849e-06
-8.50757e-08
2.85144e-06
2.52766e-07
2.84125e-06
-1.09631e-07
2.85792e-06
2.08115e-07
2.84497e-06
-3.90713e-08
2.85973e-06
8.66835e-08
2.8503e-06
4.34614e-08
2.85788e-06
2.03768e-08
2.85568e-06
6.871e-08
2.85389e-06
3.17096e-08
2.85416e-06
6.61202e-08
2.84913e-06
8.85471e-08
2.84571e-06
1.06571e-07
2.84299e-06
1.44569e-07
1.78771e-07
2.84152e-06
2.97355e-06
2.82999e-08
2.97244e-06
-1.52189e-07
2.97344e-06
3.27713e-08
2.97149e-06
-1.25927e-07
2.97907e-06
1.55522e-07
2.97403e-06
-8.00291e-08
2.98801e-06
2.38788e-07
2.97698e-06
-9.86008e-08
2.99445e-06
1.90644e-07
2.98127e-06
-2.58905e-08
2.99585e-06
7.21038e-08
2.98752e-06
5.1786e-08
2.9936e-06
1.42997e-08
2.99327e-06
6.90362e-08
2.98996e-06
3.50235e-08
2.99072e-06
6.53619e-08
2.98578e-06
9.34822e-08
2.98196e-06
1.10396e-07
2.97998e-06
1.46545e-07
1.80232e-07
2.97852e-06
3.11577e-06
2.75318e-08
3.11426e-06
-1.50671e-07
3.11586e-06
3.11729e-08
3.11329e-06
-1.23362e-07
3.1219e-06
1.46912e-07
3.11606e-06
-7.4186e-08
3.13103e-06
2.23819e-07
3.11931e-06
-8.68857e-08
3.13731e-06
1.72647e-07
3.12432e-06
-1.29021e-08
3.13824e-06
5.81833e-08
3.13149e-06
5.85394e-08
3.1358e-06
9.98607e-09
3.13731e-06
6.75297e-08
3.13289e-06
3.94454e-08
3.13357e-06
6.46757e-08
3.12906e-06
9.79902e-08
3.12471e-06
1.14749e-07
3.12337e-06
1.4789e-07
1.81477e-07
3.12212e-06
3.26481e-06
2.66335e-08
3.26277e-06
-1.48628e-07
3.26512e-06
2.88194e-08
3.26185e-06
-1.20097e-07
3.27156e-06
1.37211e-07
3.26494e-06
-6.75685e-08
3.28077e-06
2.07982e-07
3.26863e-06
-7.47425e-08
3.28677e-06
1.54511e-07
3.27448e-06
-6.12901e-10
3.28724e-06
4.54258e-08
3.28246e-06
6.3313e-08
3.28488e-06
7.5655e-09
3.28804e-06
6.43728e-08
3.28308e-06
4.44092e-08
3.28323e-06
6.45204e-08
3.2792e-06
1.02024e-07
3.27405e-06
1.199e-07
3.27351e-06
1.48429e-07
1.82519e-07
3.27247e-06
3.42098e-06
2.55861e-08
3.41829e-06
-1.45941e-07
3.42155e-06
2.55656e-08
3.41753e-06
-1.16078e-07
3.42833e-06
1.2641e-07
3.42104e-06
-6.02854e-08
3.43752e-06
1.9151e-07
3.42532e-06
-6.25509e-08
3.4431e-06
1.36734e-07
3.43208e-06
1.04086e-08
3.44319e-06
3.43177e-08
3.44069e-06
6.58108e-08
3.44122e-06
7.03325e-09
3.44578e-06
5.98151e-08
3.44097e-06
4.92205e-08
3.44078e-06
6.47051e-08
3.43666e-06
1.06151e-07
3.42961e-06
1.26948e-07
3.42978e-06
1.48255e-07
1.83069e-07
3.42923e-06
3.58462e-06
2.43752e-08
3.58118e-06
-1.42501e-07
3.58545e-06
2.12937e-08
3.58068e-06
-1.11302e-07
3.59251e-06
1.14576e-07
3.58477e-06
-5.25475e-08
3.60154e-06
1.74741e-07
3.58976e-06
-5.07631e-08
3.60668e-06
1.19811e-07
3.59738e-06
1.97035e-08
3.60657e-06
2.51324e-08
3.60635e-06
6.60338e-08
3.60529e-06
8.08987e-09
3.61083e-06
5.4275e-08
3.60706e-06
5.29928e-08
3.60903e-06
6.27339e-08
3.6111e-06
1.04079e-07
3.60435e-06
1.337e-07
3.588e-06
1.64604e-07
1.79181e-07
3.59189e-06
3.75609e-06
2.29933e-08
3.75181e-06
-1.38226e-07
3.75717e-06
1.59378e-08
3.75171e-06
-1.05841e-07
3.76442e-06
1.01864e-07
3.75654e-06
-4.46637e-08
3.7732e-06
1.58081e-07
3.76226e-06
-3.9828e-08
3.77794e-06
1.04129e-07
3.77055e-06
2.70924e-08
3.77795e-06
1.77345e-08
3.77955e-06
6.44384e-08
3.77772e-06
9.92023e-09
3.78369e-06
4.83024e-08
3.78205e-06
5.46355e-08
3.78675e-06
5.80353e-08
3.79393e-06
9.68987e-08
3.80089e-06
1.26738e-07
3.81344e-06
1.52053e-07
2.00841e-07
3.79178e-06
3.93574e-06
2.14439e-08
3.93059e-06
-1.33077e-07
3.93701e-06
9.51735e-09
3.93104e-06
-9.98768e-08
3.94436e-06
8.85503e-08
3.93677e-06
-3.70738e-08
3.95282e-06
1.42024e-07
3.94319e-06
-3.01923e-08
3.95735e-06
8.99638e-08
3.95185e-06
3.26011e-08
3.95775e-06
1.18344e-08
3.96071e-06
6.14754e-08
3.95883e-06
1.18002e-08
3.96562e-06
4.15136e-08
3.96355e-06
5.67057e-08
3.95479e-06
6.67952e-08
3.94799e-06
1.03697e-07
3.941e-06
1.33729e-07
3.93169e-06
1.61363e-07
1.92754e-07
3.93977e-06
4.12395e-06
1.97427e-08
4.11795e-06
-1.2707e-07
4.1253e-06
2.16684e-09
4.11914e-06
-9.37203e-08
4.13267e-06
7.50239e-08
4.12589e-06
-3.02951e-08
4.14087e-06
1.27036e-07
4.13283e-06
-2.21493e-08
4.14543e-06
7.73684e-08
4.14157e-06
3.64531e-08
4.14628e-06
7.12538e-09
4.15032e-06
5.74416e-08
4.14658e-06
1.55361e-08
4.14679e-06
4.13049e-08
4.13796e-06
6.55326e-08
4.13298e-06
7.1774e-08
4.13066e-06
1.06022e-07
4.12563e-06
1.38756e-07
4.12202e-06
1.64979e-07
1.88058e-07
4.12671e-06
4.32112e-06
1.79225e-08
4.31435e-06
-1.20298e-07
4.32236e-06
-5.84703e-09
4.31644e-06
-8.77978e-08
4.32975e-06
6.17183e-08
4.32426e-06
-2.48094e-08
4.33789e-06
1.13409e-07
4.33143e-06
-1.56891e-08
4.34271e-06
6.60882e-08
4.34006e-06
3.91049e-08
4.34327e-06
3.91597e-09
4.34502e-06
5.56853e-08
4.33666e-06
2.38994e-08
4.33569e-06
4.22712e-08
4.33081e-06
7.04105e-08
4.32494e-06
7.76471e-08
4.32311e-06
1.07852e-07
4.32033e-06
1.41542e-07
4.31937e-06
1.65937e-07
1.84661e-07
4.32276e-06
4.52766e-06
1.60339e-08
4.5203e-06
-1.1294e-07
4.52855e-06
-1.40889e-08
4.52341e-06
-8.26624e-08
4.53604e-06
4.90857e-08
4.53224e-06
-2.10047e-08
4.54446e-06
1.01192e-07
4.53927e-06
-1.05059e-08
4.54958e-06
5.57792e-08
4.54688e-06
4.18049e-08
4.54645e-06
4.34584e-09
4.54639e-06
5.57465e-08
4.53837e-06
3.19208e-08
4.53665e-06
4.39891e-08
4.5331e-06
7.39663e-08
4.52723e-06
8.35153e-08
4.5254e-06
1.09677e-07
4.52423e-06
1.42716e-07
4.5251e-06
1.65061e-07
1.82484e-07
4.52728e-06
4.744e-06
1.4146e-08
4.73633e-06
-1.0527e-07
4.74423e-06
-2.19811e-08
4.74048e-06
-7.89184e-08
4.75208e-06
3.74854e-08
4.75011e-06
-1.9034e-08
4.76118e-06
9.01216e-08
4.75672e-06
-6.03929e-09
4.76585e-06
4.66429e-08
4.76132e-06
4.63374e-08
4.75773e-06
7.93196e-09
4.75809e-06
5.53879e-08
4.75049e-06
3.95178e-08
4.74803e-06
4.6456e-08
4.74529e-06
7.67061e-08
4.73978e-06
8.90213e-08
4.73783e-06
1.11629e-07
4.73797e-06
1.42571e-07
4.73929e-06
1.63748e-07
1.80562e-07
4.74121e-06
4.9706e-06
1.23426e-08
4.96297e-06
-9.76421e-08
4.96984e-06
-2.88449e-08
4.96805e-06
-7.71294e-08
4.97845e-06
2.70788e-08
4.97819e-06
-1.8772e-08
4.98858e-06
7.97352e-08
4.98383e-06
-1.28871e-09
4.99041e-06
4.00563e-08
4.98475e-06
5.19975e-08
4.97951e-06
1.318e-08
4.98007e-06
5.48204e-08
4.97328e-06
4.63127e-08
4.97007e-06
4.96684e-08
4.96785e-06
7.89267e-08
4.96289e-06
9.39727e-08
4.96087e-06
1.13652e-07
4.96199e-06
1.41456e-07
4.96316e-06
1.6258e-07
1.78283e-07
4.96544e-06
5.20794e-06
1.07205e-08
5.20077e-06
-9.04777e-08
5.20591e-06
-3.39837e-08
5.20644e-06
-7.76575e-08
5.21583e-06
1.76877e-08
5.21688e-06
-1.98247e-08
5.22687e-06
6.97496e-08
5.22059e-06
4.99425e-09
5.22349e-06
3.71538e-08
5.21862e-06
5.6864e-08
5.21239e-06
1.94093e-08
5.21295e-06
5.42623e-08
5.20703e-06
5.22393e-08
5.2032e-06
5.34926e-08
5.20127e-06
8.08607e-08
5.19696e-06
9.82803e-08
5.19511e-06
1.15506e-07
5.19657e-06
1.3999e-07
5.19801e-06
1.61141e-07
1.7567e-07
5.20062e-06
5.45654e-06
9.37123e-09
5.45027e-06
-8.42112e-08
5.45314e-06
-3.68539e-08
5.4559e-06
-8.04114e-08
5.46485e-06
8.73791e-09
5.46652e-06
-2.14941e-08
5.47584e-06
6.0423e-08
5.46675e-06
1.4084e-08
5.46721e-06
3.66958e-08
5.46367e-06
6.04039e-08
5.457e-06
2.60764e-08
5.45722e-06
5.40481e-08
5.45211e-06
5.73442e-08
5.44792e-06
5.76849e-08
5.4461e-06
8.26783e-08
5.44248e-06
1.01907e-07
5.44095e-06
1.17031e-07
5.44237e-06
1.38575e-07
5.44435e-06
1.59157e-07
1.72704e-07
5.44732e-06
5.71695e-06
8.37886e-09
5.71202e-06
-7.92817e-08
5.71232e-06
-3.71542e-08
5.71661e-06
-8.47033e-08
5.72574e-06
-3.86875e-10
5.72631e-06
-2.20665e-08
5.73275e-06
5.39843e-08
5.72363e-06
2.32026e-08
5.72274e-06
3.75858e-08
5.72056e-06
6.25882e-08
5.7138e-06
3.2831e-08
5.71342e-06
5.44254e-08
5.70903e-06
6.17362e-08
5.7047e-06
6.20187e-08
5.70293e-06
8.44427e-08
5.70001e-06
1.04829e-07
5.6988e-06
1.18245e-07
5.7001e-06
1.37273e-07
5.70263e-06
1.5663e-07
1.6933e-07
5.706e-06
5.98977e-06
7.80191e-09
5.98658e-06
-7.6092e-08
5.98429e-06
-3.48691e-08
5.98877e-06
-8.91757e-08
5.99763e-06
-9.25175e-09
5.99506e-06
-1.94961e-08
6.00028e-06
4.87657e-08
5.99283e-06
3.06483e-08
5.99111e-06
3.93125e-08
5.98973e-06
6.39695e-08
5.98328e-06
3.92819e-08
5.98217e-06
5.55268e-08
5.97837e-06
6.55437e-08
5.97403e-06
6.63516e-08
5.97233e-06
8.61445e-08
5.97014e-06
1.07017e-07
5.96916e-06
1.19229e-07
5.97042e-06
1.36016e-07
5.97339e-06
1.53661e-07
1.65527e-07
5.97719e-06
6.27562e-06
7.66804e-09
6.27442e-06
-7.48911e-08
6.26993e-06
-3.03749e-08
6.27267e-06
-9.19178e-08
6.28076e-06
-1.73425e-08
6.27682e-06
-1.55562e-08
6.28131e-06
4.42791e-08
6.27534e-06
3.66181e-08
6.27281e-06
4.1842e-08
6.27179e-06
6.49898e-08
6.26588e-06
4.51902e-08
6.2641e-06
5.73013e-08
6.26073e-06
6.89183e-08
6.25649e-06
7.05934e-08
6.25486e-06
8.77736e-08
6.25344e-06
1.08435e-07
6.25265e-06
1.20022e-07
6.25393e-06
1.34735e-07
6.25722e-06
1.50365e-07
1.61309e-07
6.26144e-06
6.57516e-06
7.97948e-09
6.57601e-06
-7.57409e-08
6.56992e-06
-2.42831e-08
6.5696e-06
-9.16019e-08
6.57764e-06
-2.53873e-08
6.57309e-06
-1.10035e-08
6.57632e-06
4.10517e-08
6.57159e-06
4.13495e-08
6.56843e-06
4.50053e-08
6.5674e-06
6.6017e-08
6.56212e-06
5.04705e-08
6.55986e-06
5.95629e-08
6.55677e-06
7.20007e-08
6.55269e-06
7.46813e-08
6.55111e-06
8.93517e-08
6.55047e-06
1.09072e-07
6.54993e-06
1.20565e-07
6.55127e-06
1.33394e-07
6.55477e-06
1.46862e-07
1.56718e-07
6.55936e-06
6.88907e-06
8.70227e-09
6.89177e-06
-7.844e-08
6.88495e-06
-1.74616e-08
6.88135e-06
-8.8003e-08
6.88903e-06
-3.3067e-08
6.88412e-06
-6.09799e-09
6.88578e-06
3.93966e-08
6.88213e-06
4.49976e-08
6.87858e-06
4.855e-08
6.87729e-06
6.73146e-08
6.87258e-06
5.51734e-08
6.87005e-06
6.20929e-08
6.86719e-06
7.48624e-08
6.8633e-06
7.85766e-08
6.86173e-06
9.09129e-08
6.86182e-06
1.08984e-07
6.86165e-06
1.20737e-07
6.8631e-06
1.31944e-07
6.86671e-06
1.43251e-07
1.51831e-07
6.8716e-06
7.21807e-06
9.77244e-09
7.22217e-06
-8.25407e-08
7.21576e-06
-1.10573e-08
7.20896e-06
-8.11986e-08
7.21559e-06
-3.96972e-08
7.21045e-06
-9.64509e-10
7.21032e-06
3.95342e-08
7.20755e-06
4.7764e-08
7.20392e-06
5.2179e-08
7.2022e-06
6.90372e-08
7.19794e-06
5.94364e-08
7.19532e-06
6.47081e-08
7.19268e-06
7.75019e-08
7.18901e-06
8.2249e-08
7.18747e-06
9.24497e-08
7.18812e-06
1.08332e-07
7.18847e-06
1.2039e-07
7.19011e-06
1.30309e-07
7.19376e-06
1.39593e-07
1.4675e-07
7.19885e-06
7.5629e-06
1.11024e-08
7.5679e-06
-8.75475e-08
7.56298e-06
-6.13334e-09
7.55333e-06
-7.15493e-08
7.5581e-06
-4.44715e-08
7.55274e-06
4.4031e-09
7.5507e-06
4.15715e-08
7.54852e-06
4.99386e-08
7.5451e-06
5.55987e-08
7.54292e-06
7.12241e-08
7.5389e-06
6.34536e-08
7.53633e-06
6.72817e-08
7.53397e-06
7.98629e-08
7.53055e-06
8.5661e-08
7.52909e-06
9.39085e-08
7.53007e-06
1.07354e-07
7.53106e-06
1.194e-07
7.53299e-06
1.28384e-07
7.53668e-06
1.35899e-07
1.4157e-07
7.54186e-06
7.92432e-06
1.25916e-08
7.92962e-06
-9.28492e-08
7.92717e-06
-3.68133e-09
7.91541e-06
-5.97871e-08
7.91729e-06
-4.63554e-08
7.91162e-06
1.00758e-08
7.90775e-06
4.54391e-08
7.9058e-06
5.18937e-08
7.9028e-06
5.85939e-08
7.90024e-06
7.3786e-08
7.89626e-06
6.74384e-08
7.89377e-06
6.9767e-08
7.89177e-06
8.18621e-08
7.8887e-06
8.8735e-08
7.88736e-06
9.52493e-08
7.88846e-06
1.0625e-07
7.89012e-06
1.17742e-07
7.89245e-06
1.26057e-07
7.89622e-06
1.32127e-07
1.36357e-07
7.90143e-06
8.30312e-06
1.41495e-08
8.30809e-06
-9.782e-08
8.30931e-06
-4.9019e-09
8.29568e-06
-4.61558e-08
8.29378e-06
-4.44521e-08
8.28783e-06
1.6027e-08
8.28235e-06
5.09134e-08
8.2802e-06
5.40526e-08
8.27773e-06
6.10604e-08
8.27497e-06
7.65466e-08
8.27086e-06
7.1551e-08
8.26841e-06
7.22165e-08
8.26684e-06
8.34325e-08
8.26423e-06
9.1346e-08
8.26303e-06
9.64447e-08
8.26415e-06
1.05133e-07
8.26639e-06
1.15502e-07
8.26921e-06
1.23231e-07
8.27314e-06
1.28196e-07
1.31132e-07
8.27837e-06
8.70009e-06
1.57175e-08
8.70494e-06
-1.02664e-07
8.70858e-06
-8.54844e-09
8.69363e-06
-3.12012e-08
8.688e-06
-3.88229e-08
8.68211e-06
2.19157e-08
8.67544e-06
5.75888e-08
8.6726e-06
5.68842e-08
8.67063e-06
6.30379e-08
8.6679e-06
7.92755e-08
8.66359e-06
7.58556e-08
8.66106e-06
7.47463e-08
8.65992e-06
8.45737e-08
8.65792e-06
9.33501e-08
8.65694e-06
9.74261e-08
8.65801e-06
1.04064e-07
8.66068e-06
1.12825e-07
8.66405e-06
1.19861e-07
8.66824e-06
1.24007e-07
1.25876e-07
8.6735e-06
9.11606e-06
1.72744e-08
9.12133e-06
-1.0793e-07
9.12559e-06
-1.28055e-08
9.10788e-06
-1.34958e-08
9.10043e-06
-3.13764e-08
9.09528e-06
2.70721e-08
9.08791e-06
6.49521e-08
9.08399e-06
6.08072e-08
9.0823e-06
6.473e-08
9.07983e-06
8.17434e-08
9.07538e-06
8.0307e-08
9.07264e-06
7.74824e-08
9.07185e-06
8.53649e-08
9.07058e-06
9.46213e-08
9.06992e-06
9.80844e-08
9.07095e-06
1.03036e-07
9.07391e-06
1.09867e-07
9.0778e-06
1.15972e-07
9.08234e-06
1.19463e-07
1.20531e-07
9.08768e-06
9.55191e-06
1.88267e-08
9.55359e-06
-1.09614e-07
9.55464e-06
-1.38527e-08
9.53934e-06
1.79956e-09
9.53202e-06
-2.40553e-08
9.52825e-06
3.08445e-08
9.52066e-06
7.25427e-08
9.51539e-06
6.60804e-08
9.51366e-06
6.64513e-08
9.51161e-06
8.37971e-08
9.50716e-06
8.47552e-08
9.50412e-06
8.05298e-08
9.50353e-06
8.59524e-08
9.50306e-06
9.50917e-08
9.50283e-06
9.83135e-08
9.5039e-06
1.01968e-07
9.507e-06
1.06763e-07
9.51132e-06
1.11654e-07
9.51627e-06
1.1451e-07
1.15016e-07
9.52179e-06
1.00086e-05
2.03852e-08
1.00029e-05
-1.03972e-07
1.00044e-05
-1.53325e-08
9.9915e-06
1.47122e-08
9.98416e-06
-1.67127e-08
9.98177e-06
3.32348e-08
9.97447e-06
7.98459e-08
9.9678e-06
7.2751e-08
9.96568e-06
6.85699e-08
9.96411e-06
8.53679e-08
9.95987e-06
8.89896e-08
9.95649e-06
8.39127e-08
9.95593e-06
8.6508e-08
9.95623e-06
9.47954e-08
9.95654e-06
9.80047e-08
9.95778e-06
1.00722e-07
9.96096e-06
1.03585e-07
9.96558e-06
1.07032e-07
9.97094e-06
1.09154e-07
1.09247e-07
9.97671e-06
1.04871e-05
2.18983e-08
1.04755e-05
-9.23151e-08
1.04796e-05
-1.94949e-08
1.0467e-05
2.73772e-08
1.04582e-05
-7.90075e-09
1.04567e-05
3.47037e-08
1.04502e-05
8.63746e-08
1.04422e-05
8.06625e-08
1.04393e-05
7.14815e-08
1.04382e-05
8.65066e-08
1.04344e-05
9.27915e-08
1.04307e-05
8.75608e-08
1.04301e-05
8.71859e-08
1.0431e-05
9.38823e-08
1.04319e-05
9.70543e-08
1.04335e-05
9.91387e-08
1.04368e-05
1.00327e-07
1.04416e-05
1.02218e-07
1.04473e-05
1.0345e-07
1.03173e-07
1.04534e-05
1.09887e-05
2.31819e-08
1.09868e-05
-9.03462e-08
1.09809e-05
-1.36149e-08
1.09661e-05
4.22053e-08
1.09553e-05
2.84752e-09
1.0954e-05
3.59954e-08
1.09486e-05
9.18125e-08
1.09398e-05
8.94911e-08
1.09357e-05
7.55072e-08
1.09348e-05
8.73855e-08
1.09317e-05
9.59482e-08
1.09279e-05
9.13125e-08
1.0927e-05
8.81058e-08
1.09283e-05
9.25593e-08
1.09299e-05
9.54528e-08
1.0932e-05
9.70546e-08
1.09354e-05
9.6919e-08
1.09404e-05
9.72895e-08
1.09463e-05
9.74896e-08
9.67945e-08
1.09527e-05
1.15142e-05
2.43514e-08
1.15012e-05
-7.73092e-08
1.1502e-05
-1.44259e-08
1.14899e-05
5.43145e-08
1.14771e-05
1.56096e-08
1.14751e-05
3.80348e-08
1.14708e-05
9.60746e-08
1.14615e-05
9.88223e-08
1.14561e-05
8.08847e-08
1.14551e-05
8.83221e-08
1.14528e-05
9.83119e-08
1.14491e-05
9.4959e-08
1.14479e-05
8.93286e-08
1.14495e-05
9.10195e-08
1.14516e-05
9.3319e-08
1.14543e-05
9.43031e-08
1.1458e-05
9.32552e-08
1.1463e-05
9.2258e-08
1.14692e-05
9.13511e-08
9.01368e-08
1.14758e-05
1.20649e-05
2.53165e-08
1.205e-05
-6.24298e-08
1.20485e-05
-1.29766e-08
1.20388e-05
6.40001e-08
1.20245e-05
2.99376e-08
1.2021e-05
4.15386e-08
1.20178e-05
9.93301e-08
1.20084e-05
1.08187e-07
1.20016e-05
8.7687e-08
1.20002e-05
8.96923e-08
1.19987e-05
9.98471e-08
1.19954e-05
9.82434e-08
1.19939e-05
9.08265e-08
1.19955e-05
8.94585e-08
1.1998e-05
9.07907e-08
1.20015e-05
9.08217e-08
1.20055e-05
8.92157e-08
1.20107e-05
8.70881e-08
1.20169e-05
8.5086e-08
8.32461e-08
1.20238e-05
1.26418e-05
2.60885e-08
1.26253e-05
-4.59412e-08
1.26231e-05
-1.07053e-08
1.26143e-05
7.27348e-08
1.25985e-05
4.57211e-08
1.25932e-05
4.68834e-08
1.25906e-05
1.0193e-07
1.25816e-05
1.1716e-07
1.25735e-05
9.58441e-08
1.25712e-05
9.19115e-08
1.25704e-05
1.00713e-07
1.25677e-05
1.00898e-07
1.2566e-05
9.25091e-08
1.25674e-05
8.80953e-08
1.25704e-05
8.78388e-08
1.25744e-05
8.67712e-08
1.2579e-05
8.46363e-08
1.25844e-05
8.17207e-08
1.25908e-05
7.86859e-08
7.61476e-08
1.25979e-05
1.32463e-05
2.66744e-08
1.32331e-05
-3.27201e-08
1.32269e-05
-4.45764e-09
1.32175e-05
8.21244e-08
1.32004e-05
6.28029e-08
1.31929e-05
5.43552e-08
1.31905e-05
1.04359e-07
1.31822e-05
1.25433e-07
1.3173e-05
1.05127e-07
1.31696e-05
9.52895e-08
1.3169e-05
1.01255e-07
1.31672e-05
1.02697e-07
1.31655e-05
9.42116e-08
1.31666e-05
8.70567e-08
1.317e-05
8.44235e-08
1.31743e-05
8.24254e-08
1.31797e-05
7.93144e-08
1.31852e-05
7.61733e-08
1.31918e-05
7.20542e-08
6.88373e-08
1.31991e-05
1.38797e-05
2.71594e-08
1.38666e-05
-1.96216e-08
1.38584e-05
3.7298e-09
1.38494e-05
9.11333e-08
1.38315e-05
8.06604e-08
1.38217e-05
6.42184e-08
1.38189e-05
1.07143e-07
1.38115e-05
1.3286e-07
1.38014e-05
1.15176e-07
1.37967e-05
1.00044e-07
1.3796e-05
1.01922e-07
1.3795e-05
1.03656e-07
1.37935e-05
9.56865e-08
1.37943e-05
8.63041e-08
1.37979e-05
8.07847e-08
1.38025e-05
7.78329e-08
1.38087e-05
7.31708e-08
1.38144e-05
7.04879e-08
1.38214e-05
6.50099e-08
6.12815e-08
1.3829e-05
1.45432e-05
2.76476e-08
1.45257e-05
-2.12821e-09
1.45188e-05
1.06264e-08
1.45112e-05
9.8675e-08
1.44932e-05
9.86574e-08
1.44808e-05
7.66217e-08
1.44772e-05
1.1083e-07
1.44705e-05
1.39525e-07
1.44601e-05
1.25565e-07
1.44539e-05
1.06291e-07
1.44526e-05
1.03144e-07
1.44523e-05
1.04023e-07
1.44513e-05
9.66457e-08
1.44519e-05
8.57083e-08
1.44554e-05
7.73037e-08
1.44605e-05
7.26923e-08
1.4467e-05
6.66897e-08
1.44734e-05
6.41032e-08
1.44807e-05
5.7715e-08
5.33126e-08
1.44887e-05
1.52384e-05
2.81352e-08
1.52229e-05
1.33359e-08
1.52119e-05
2.17056e-08
1.52043e-05
1.06209e-07
1.51868e-05
1.16199e-07
1.51719e-05
9.147e-08
1.51668e-05
1.15994e-07
1.51606e-05
1.45656e-07
1.51503e-05
1.3591e-07
1.51426e-05
1.13984e-07
1.51404e-05
1.05299e-07
1.51403e-05
1.04154e-07
1.514e-05
9.69856e-08
1.51406e-05
8.51093e-08
1.51438e-05
7.40599e-08
1.51495e-05
6.70426e-08
1.51558e-05
6.03216e-08
1.51636e-05
5.63271e-08
1.51709e-05
5.04669e-08
4.47286e-08
1.51794e-05
1.59667e-05
2.87603e-08
1.59522e-05
2.78458e-08
1.59376e-05
3.6266e-08
1.59304e-05
1.13492e-07
1.59134e-05
1.33126e-07
1.58965e-05
1.08408e-07
1.58893e-05
1.23175e-07
1.58834e-05
1.51604e-07
1.58733e-05
1.46015e-07
1.58643e-05
1.22902e-07
1.58609e-05
1.08772e-07
1.58606e-05
1.044e-07
1.58607e-05
9.68826e-08
1.58615e-05
8.42921e-08
1.58646e-05
7.09879e-08
1.58703e-05
6.13052e-08
1.5877e-05
5.36215e-08
1.58855e-05
4.78437e-08
1.58938e-05
4.21622e-08
3.62311e-08
1.59023e-05
1.67295e-05
2.98181e-08
1.67092e-05
4.81822e-08
1.66981e-05
4.73919e-08
1.66911e-05
1.20473e-07
1.66747e-05
1.49544e-07
1.6656e-05
1.27044e-07
1.66465e-05
1.32766e-07
1.66402e-05
1.57865e-07
1.66304e-05
1.55856e-07
1.66205e-05
1.32755e-07
1.66154e-05
1.13829e-07
1.66147e-05
1.05164e-07
1.66149e-05
9.66306e-08
1.66161e-05
8.3143e-08
1.66191e-05
6.79929e-08
1.66246e-05
5.57704e-08
1.6632e-05
4.6255e-08
1.66408e-05
3.89871e-08
1.66504e-05
3.26254e-08
2.7432e-08
1.66592e-05
1.75291e-05
3.10304e-08
1.75195e-05
5.78752e-08
1.74977e-05
6.91583e-08
1.7488e-05
1.30164e-07
1.74721e-05
1.65484e-07
1.74521e-05
1.46995e-07
1.74399e-05
1.44939e-07
1.74328e-05
1.65032e-07
1.74231e-05
1.65539e-07
1.74125e-05
1.43363e-07
1.74058e-05
1.20524e-07
1.7404e-05
1.06977e-07
1.7404e-05
9.65782e-08
1.74054e-05
8.17728e-08
1.74084e-05
6.49711e-08
1.74139e-05
5.02894e-08
1.74217e-05
3.84642e-08
1.74311e-05
2.95887e-08
1.74413e-05
2.24419e-08
1.70627e-08
1.74516e-05
1.83665e-05
3.28542e-08
1.83489e-05
7.55264e-08
1.8334e-05
8.40622e-08
1.83232e-05
1.40976e-07
1.83073e-05
1.81296e-07
1.82864e-05
1.67956e-07
1.82715e-05
1.59775e-07
1.82629e-05
1.73715e-07
1.82531e-05
1.75345e-07
1.82418e-05
1.54646e-07
1.82335e-05
1.28843e-07
1.82301e-05
1.10343e-07
1.82295e-05
9.71695e-08
1.82308e-05
8.0433e-08
1.82339e-05
6.18737e-08
1.82395e-05
4.47315e-08
1.82476e-05
3.03938e-08
1.82576e-05
1.95529e-08
1.82688e-05
1.11992e-08
5.40203e-09
1.82805e-05
1.9244e-05
3.52574e-08
1.92309e-05
8.8583e-08
1.92109e-05
1.04089e-07
1.91981e-05
1.53825e-07
1.91822e-05
1.97152e-07
1.91606e-05
1.89573e-07
1.9143e-05
1.77311e-07
1.91323e-05
1.84466e-07
1.9122e-05
1.85683e-07
1.91099e-05
1.66656e-07
1.91e-05
1.38819e-07
1.90946e-05
1.15683e-07
1.90929e-05
9.8927e-08
1.90938e-05