/*--------------------------------*- C++ -*----------------------------------*\
| =========                 |                                                 |
| \\      /  F ield         | OpenFOAM: The Open Source CFD Toolbox           |
|  \\    /   O peration     | Version:  v2012                                 |
|   \\  /    A nd           | Website:  www.openfoam.com                      |
|    \\/     M anipulation  |                                                 |
\*---------------------------------------------------------------------------*/
FoamFile
{
    version     2.0;
    format      ascii;
    class       surfaceScalarField;
    location    "3.45";
    object      phi;
}
// * * * * * * * * * * * * * * * * * * * * * * * * * * * * * * * * * * * * * //

dimensions      [0 3 -1 0 0 0 0];
oriented        oriented;


internalField   nonuniform List<scalar> 
34900
(
1.17138e-06
3.14097e-07
1.15813e-06
-5.06781e-07
1.16966e-06
5.51795e-07
1.14757e-06
-4.2946e-07
1.16043e-06
1.76917e-07
1.14717e-06
-5.76685e-08
1.15601e-06
-8.34876e-08
1.1499e-06
3.65565e-08
1.16014e-06
2.2902e-08
1.15331e-06
3.83095e-08
1.16231e-06
8.06961e-08
1.15336e-06
5.04676e-08
1.16127e-06
8.46293e-08
1.15022e-06
3.82909e-08
1.15751e-06
7.90464e-08
1.1447e-06
2.97752e-08
1.15124e-06
7.62326e-08
1.13722e-06
2.34799e-08
1.13884e-06
8.86784e-08
2.79951e-08
1.10165e-06
1.22418e-06
3.14176e-07
1.21142e-06
-4.94018e-07
1.21969e-06
5.43528e-07
1.19945e-06
-4.09229e-07
1.20986e-06
1.66511e-07
1.20115e-06
-4.89614e-08
1.20786e-06
-9.01895e-08
1.20598e-06
3.84284e-08
1.21322e-06
1.56654e-08
1.21126e-06
4.02702e-08
1.21511e-06
7.68491e-08
1.21338e-06
5.21935e-08
1.21314e-06
8.48736e-08
1.21273e-06
3.87009e-08
1.20756e-06
8.42103e-08
1.21054e-06
2.6801e-08
1.1981e-06
8.86719e-08
1.20657e-06
1.50095e-08
1.18104e-06
1.14204e-07
2.39392e-08
1.1851e-06
1.2793e-06
3.1766e-07
1.26693e-06
-4.81653e-07
1.27199e-06
5.38469e-07
1.25562e-06
-3.92856e-07
1.26098e-06
1.61151e-07
1.25936e-06
-4.73389e-08
1.26107e-06
-9.19007e-08
1.26576e-06
3.37368e-08
1.26728e-06
1.41483e-08
1.2726e-06
3.49433e-08
1.26972e-06
7.97387e-08
1.27575e-06
4.61554e-08
1.26875e-06
9.18767e-08
1.27509e-06
3.23625e-08
1.26501e-06
9.42852e-08
1.27126e-06
2.05527e-08
1.25948e-06
1.00451e-07
1.26313e-06
1.13603e-08
1.25053e-06
1.26809e-07
3.76407e-08
1.23683e-06
1.33778e-06
3.23985e-07
1.32662e-06
-4.70499e-07
1.32889e-06
5.36207e-07
1.31816e-06
-3.82127e-07
1.31737e-06
1.61941e-07
1.32296e-06
-5.29321e-08
1.31911e-06
-8.80531e-08
1.328e-06
2.48525e-08
1.32567e-06
1.64799e-08
1.3344e-06
2.62061e-08
1.32946e-06
8.46797e-08
1.33714e-06
3.84776e-08
1.33078e-06
9.82369e-08
1.33595e-06
2.7191e-08
1.32959e-06
1.00647e-07
1.33183e-06
1.83167e-08
1.32642e-06
1.05859e-07
1.32394e-06
1.38396e-08
1.31875e-06
1.31996e-07
5.52402e-08
1.30115e-06
1.4006e-06
3.31734e-07
1.39103e-06
-4.60926e-07
1.39183e-06
5.35411e-07
1.38656e-06
-3.76859e-07
1.38132e-06
1.67178e-07
1.39115e-06
-6.27636e-08
1.38413e-06
-8.10315e-08
1.39314e-06
1.58485e-08
1.39038e-06
1.92328e-08
1.39824e-06
1.8346e-08
1.39518e-06
8.77438e-08
1.40094e-06
3.27173e-08
1.39796e-06
1.01216e-07
1.40055e-06
2.45994e-08
1.39779e-06
1.03414e-07
1.39762e-06
1.84791e-08
1.39504e-06
1.08442e-07
1.39055e-06
1.83348e-08
1.38742e-06
1.35126e-07
7.27194e-08
1.36994e-06
1.46834e-06
3.39071e-07
1.46017e-06
-4.52755e-07
1.4611e-06
5.34481e-07
1.45955e-06
-3.75314e-07
1.45293e-06
1.73797e-07
1.46322e-06
-7.3047e-08
1.45588e-06
-7.36928e-08
1.46248e-06
9.24388e-09
1.46099e-06
2.07229e-08
1.46649e-06
1.28506e-08
1.46576e-06
8.84739e-08
1.46961e-06
2.88628e-08
1.46892e-06
1.01908e-07
1.47026e-06
2.32611e-08
1.46911e-06
1.04565e-07
1.46817e-06
1.94197e-08
1.46675e-06
1.09857e-07
1.46115e-06
2.3941e-08
1.45954e-06
1.36737e-07
9.01376e-08
1.44212e-06
1.54088e-06
3.44412e-07
1.53366e-06
-4.4554e-07
1.53584e-06
5.32304e-07
1.53595e-06
-3.75425e-07
1.5304e-06
1.7934e-07
1.5387e-06
-8.13424e-08
1.53244e-06
-6.74363e-08
1.53639e-06
5.2998e-09
1.53585e-06
2.12555e-08
1.53946e-06
9.24837e-09
1.53994e-06
8.79938e-08
1.54281e-06
2.59946e-08
1.5431e-06
1.01614e-07
1.54401e-06
2.23521e-08
1.54369e-06
1.04887e-07
1.54224e-06
2.08638e-08
1.54186e-06
1.1024e-07
1.53508e-06
3.07172e-08
1.53493e-06
1.36894e-07
1.07183e-07
1.51788e-06
1.61753e-06
3.47008e-07
1.61091e-06
-4.3892e-07
1.61464e-06
5.28577e-07
1.61491e-06
-3.75692e-07
1.61145e-06
1.82797e-07
1.61712e-06
-8.70155e-08
1.61199e-06
-6.23041e-08
1.61412e-06
3.17239e-09
1.61375e-06
2.16233e-08
1.61623e-06
6.76755e-09
1.61704e-06
8.71886e-08
1.61941e-06
2.36202e-08
1.62015e-06
1.00875e-07
1.62078e-06
2.17236e-08
1.62118e-06
1.04484e-07
1.61913e-06
2.29133e-08
1.61984e-06
1.09531e-07
1.61194e-06
3.86146e-08
1.61295e-06
1.35885e-07
1.23288e-07
1.59685e-06
1.69754e-06
3.4704e-07
1.69136e-06
-4.32739e-07
1.69639e-06
5.23549e-07
1.69605e-06
-3.7535e-07
1.69463e-06
1.84216e-07
1.69811e-06
-9.05032e-08
1.69375e-06
-5.79379e-08
1.69492e-06
2.00504e-09
1.69435e-06
2.21914e-08
1.69616e-06
4.95751e-09
1.69697e-06
8.63802e-08
1.69895e-06
2.16412e-08
1.70001e-06
9.98072e-08
1.70027e-06
2.14655e-08
1.70144e-06
1.03314e-07
1.69867e-06
2.56831e-08
1.70046e-06
1.07746e-07
1.69162e-06
4.74541e-08
1.6934e-06
1.34099e-07
1.37913e-07
1.67878e-06
1.78053e-06
3.45232e-07
1.77475e-06
-4.26959e-07
1.7807e-06
5.17603e-07
1.77945e-06
-3.741e-07
1.77967e-06
1.83994e-07
1.78164e-06
-9.2477e-08
1.77785e-06
-5.41478e-08
1.77859e-06
1.27261e-09
1.7779e-06
2.28806e-08
1.77924e-06
3.61361e-09
1.78006e-06
8.5563e-08
1.7816e-06
2.01003e-08
1.78303e-06
9.83793e-08
1.78277e-06
2.17214e-08
1.78475e-06
1.01332e-07
1.78118e-06
2.92551e-08
1.78392e-06
1.05009e-07
1.77441e-06
5.69615e-08
1.77649e-06
1.32018e-07
1.50614e-07
1.76379e-06
1.86663e-06
3.42349e-07
1.8612e-06
-4.21532e-07
1.86782e-06
5.10988e-07
1.86557e-06
-3.71849e-07
1.86709e-06
1.82476e-07
1.86803e-06
-9.34189e-08
1.86484e-06
-5.09553e-08
1.86539e-06
7.21664e-10
1.86484e-06
2.343e-08
1.86582e-06
2.63188e-09
1.86679e-06
8.45958e-08
1.86782e-06
1.90619e-08
1.86969e-06
9.65119e-08
1.86879e-06
2.26257e-08
1.87158e-06
9.85361e-08
1.86719e-06
3.36475e-08
1.87063e-06
1.01567e-07
1.86081e-06
6.67817e-08
1.86266e-06
1.30173e-07
1.61076e-07
1.85219e-06
1.95627e-06
3.38915e-07
1.95109e-06
-4.16348e-07
1.95828e-06
5.03796e-07
1.95502e-06
-3.68583e-07
1.95762e-06
1.7987e-07
1.95776e-06
-9.35577e-08
1.95526e-06
-4.84541e-08
1.95571e-06
2.72202e-10
1.95556e-06
2.35825e-08
1.95623e-06
1.96222e-09
1.95752e-06
8.32991e-08
1.95801e-06
1.85798e-08
1.96041e-06
9.41086e-08
1.95877e-06
2.42664e-08
1.96232e-06
9.49799e-08
1.95719e-06
3.87801e-08
1.96098e-06
9.7774e-08
1.95126e-06
7.65093e-08
1.95238e-06
1.29045e-07
1.69172e-07
1.94429e-06
2.04992e-06
3.3518e-07
2.04483e-06
-4.11255e-07
2.05261e-06
4.96017e-07
2.04836e-06
-3.6433e-07
2.05194e-06
1.76287e-07
2.05134e-06
-9.29542e-08
2.0496e-06
-4.67173e-08
2.04991e-06
-3.58672e-11
2.05034e-06
2.31536e-08
2.05069e-06
1.60944e-09
2.05248e-06
8.15047e-08
2.05237e-06
1.86909e-08
2.0554e-06
9.10833e-08
2.05301e-06
2.6658e-08
2.0572e-06
9.07806e-08
2.05153e-06
4.4459e-08
2.05526e-06
9.40432e-08
2.04603e-06
8.57378e-08
2.0461e-06
1.28972e-07
1.74981e-07
2.04029e-06
2.14797e-06
3.31214e-07
2.1428e-06
-4.06086e-07
2.15121e-06
4.87602e-07
2.14602e-06
-3.59134e-07
2.15052e-06
1.71785e-07
2.14916e-06
-9.15942e-08
2.14823e-06
-4.57869e-08
2.14828e-06
-8.27875e-11
2.1494e-06
2.20292e-08
2.14938e-06
1.62859e-09
2.1518e-06
7.90827e-08
2.15108e-06
1.94127e-08
2.15478e-06
8.73887e-08
2.15171e-06
2.97259e-08
2.15636e-06
8.61275e-08
2.15043e-06
5.03947e-08
2.15368e-06
9.07914e-08
2.1453e-06
9.41122e-08
2.14417e-06
1.30107e-07
1.78773e-07
2.14038e-06
2.25069e-06
3.27008e-07
2.2453e-06
-4.00687e-07
2.25441e-06
4.7849e-07
2.24831e-06
-3.53038e-07
2.25371e-06
1.66383e-07
2.25156e-06
-8.94383e-08
2.25147e-06
-4.56978e-08
2.2511e-06
2.88364e-10
2.25299e-06
2.01401e-08
2.25251e-06
2.10136e-09
2.25564e-06
7.59529e-08
2.25432e-06
2.07331e-08
2.25867e-06
8.30453e-08
2.25509e-06
3.33015e-08
2.25994e-06
8.12783e-08
2.25408e-06
5.62507e-08
2.25649e-06
8.83807e-08
2.24923e-06
1.01375e-07
2.24692e-06
1.32417e-07
1.80948e-07
2.24475e-06
2.35835e-06
3.22531e-07
2.35259e-06
-3.94926e-07
2.36246e-06
4.68619e-07
2.35548e-06
-3.46058e-07
2.3618e-06
1.60065e-07
2.3588e-06
-8.64372e-08
2.3596e-06
-4.64985e-08
2.35865e-06
1.23377e-09
2.36135e-06
1.74415e-08
2.36035e-06
3.10327e-09
2.36421e-06
7.20927e-08
2.36235e-06
2.25899e-08
2.36724e-06
7.81611e-08
2.36341e-06
3.71292e-08
2.36815e-06
7.65402e-08
2.36269e-06
6.17055e-08
2.36402e-06
8.70591e-08
2.35797e-06
1.07418e-07
2.35469e-06
1.35705e-07
1.81974e-07
2.35366e-06
2.47118e-06
3.17749e-07
2.46494e-06
-3.88692e-07
2.47564e-06
4.57924e-07
2.46776e-06
-3.38181e-07
2.47504e-06
1.52781e-07
2.47114e-06
-8.25316e-08
2.47289e-06
-4.82527e-08
2.47124e-06
2.88317e-09
2.47478e-06
1.39094e-08
2.47321e-06
4.67086e-09
2.47775e-06
6.75472e-08
2.47549e-06
2.48487e-08
2.48072e-06
7.29357e-08
2.47696e-06
4.08943e-08
2.48127e-06
7.22281e-08
2.47646e-06
6.65118e-08
2.4766e-06
8.69184e-08
2.47171e-06
1.12309e-07
2.46778e-06
1.39637e-07
1.82327e-07
2.46743e-06
2.58941e-06
3.12637e-07
2.58261e-06
-3.81893e-07
2.5942e-06
4.46333e-07
2.58538e-06
-3.29365e-07
2.59371e-06
1.44455e-07
2.58883e-06
-7.76544e-08
2.59161e-06
-5.10296e-08
2.58917e-06
5.32523e-09
2.59352e-06
9.55187e-09
2.59142e-06
6.7757e-09
2.59653e-06
6.24389e-08
2.59408e-06
2.7293e-08
2.59938e-06
6.76404e-08
2.59601e-06
4.42675e-08
2.59962e-06
6.86121e-08
2.5956e-06
7.05357e-08
2.59463e-06
8.78853e-08
2.59068e-06
1.16264e-07
2.5865e-06
1.43815e-07
1.82436e-07
2.58639e-06
2.7133e-06
3.07167e-07
2.70585e-06
-3.74444e-07
2.71842e-06
4.33762e-07
2.7086e-06
-3.19548e-07
2.71806e-06
1.34997e-07
2.71215e-06
-7.17382e-08
2.716e-06
-5.48866e-08
2.71273e-06
8.59578e-09
2.71786e-06
4.42746e-09
2.71533e-06
9.30351e-09
2.72079e-06
5.69778e-08
2.71846e-06
2.96261e-08
2.72351e-06
6.2582e-08
2.72082e-06
4.69619e-08
2.72357e-06
6.58608e-08
2.72032e-06
7.37878e-08
2.71845e-06
8.9759e-08
2.71515e-06
1.19558e-07
2.71109e-06
1.47875e-07
1.8262e-07
2.71091e-06
2.84312e-06
3.01315e-07
2.83493e-06
-3.66259e-07
2.84858e-06
4.20112e-07
2.83769e-06
-3.08652e-07
2.84837e-06
1.24314e-07
2.84136e-06
-6.47294e-08
2.84633e-06
-5.98504e-08
2.84226e-06
1.26643e-08
2.84802e-06
-1.33166e-09
2.84528e-06
1.20408e-08
2.8508e-06
5.14555e-08
2.84892e-06
3.15061e-08
2.85346e-06
5.8041e-08
2.85163e-06
4.87995e-08
2.8535e-06
6.39889e-08
2.85086e-06
7.6425e-08
2.84833e-06
9.22856e-08
2.84546e-06
1.22429e-07
2.84179e-06
1.51552e-07
1.83052e-07
2.84135e-06
2.97915e-06
2.95058e-07
2.97014e-06
-3.57247e-07
2.98498e-06
4.05275e-07
2.97293e-06
-2.96601e-07
2.98492e-06
1.12325e-07
2.97679e-06
-5.66038e-08
2.98284e-06
-6.5897e-08
2.97809e-06
1.7416e-08
2.98425e-06
-7.4975e-09
2.98162e-06
1.46693e-08
2.98685e-06
4.62283e-08
2.98577e-06
3.25881e-08
2.98959e-06
5.42158e-08
2.98864e-06
4.97553e-08
2.98979e-06
6.2837e-08
2.9875e-06
7.87103e-08
2.98455e-06
9.52402e-08
2.98194e-06
1.25042e-07
2.97879e-06
1.54698e-07
1.8376e-07
2.97808e-06
3.12169e-06
2.88371e-07
3.11176e-06
-3.4731e-07
3.1279e-06
3.89133e-07
3.11462e-06
-2.83322e-07
3.12797e-06
9.89739e-08
3.11875e-06
-4.7385e-08
3.12579e-06
-7.29312e-08
3.12056e-06
2.26395e-08
3.12681e-06
-1.3743e-08
3.12469e-06
1.67829e-08
3.12924e-06
4.16821e-08
3.12925e-06
3.25836e-08
3.13229e-06
5.11722e-08
3.13209e-06
4.99553e-08
3.13282e-06
6.21091e-08
3.1306e-06
8.09241e-08
3.12734e-06
9.85001e-08
3.12481e-06
1.27573e-07
3.12232e-06
1.57186e-07
1.84669e-07
3.12142e-06
3.27105e-06
2.81233e-07
3.26009e-06
-3.36349e-07
3.27765e-06
3.71571e-07
3.26309e-06
-2.68767e-07
3.27782e-06
8.42502e-08
3.2676e-06
-3.71671e-08
3.27543e-06
-8.07636e-08
3.27006e-06
2.80103e-08
3.27595e-06
-1.96356e-08
3.27483e-06
1.79051e-08
3.27832e-06
3.81957e-08
3.2796e-06
3.13005e-08
3.28194e-06
4.88382e-08
3.28229e-06
4.96014e-08
3.28294e-06
6.14561e-08
3.28066e-06
8.32064e-08
3.277e-06
1.02164e-07
3.27412e-06
1.30453e-07
3.27272e-06
1.58581e-07
1.85854e-07
3.27154e-06
3.42754e-06
2.73623e-07
3.41546e-06
-3.24266e-07
3.43454e-06
3.52487e-07
3.4187e-06
-2.52929e-07
3.43474e-06
6.82115e-08
3.42372e-06
-2.61421e-08
3.43204e-06
-8.90836e-08
3.42698e-06
3.30723e-08
3.43198e-06
-2.46408e-08
3.43236e-06
1.75241e-08
3.43447e-06
3.60911e-08
3.43709e-06
2.86801e-08
3.43889e-06
4.70352e-08
3.43961e-06
4.88811e-08
3.44057e-06
6.04928e-08
3.43876e-06
8.50194e-08
3.4341e-06
1.06821e-07
3.42948e-06
1.35074e-07
3.42926e-06
1.58804e-07
1.86937e-07
3.42818e-06
3.5915e-06
2.65531e-07
3.57822e-06
-3.10978e-07
3.59889e-06
3.31815e-07
3.58182e-06
-2.35863e-07
3.59903e-06
5.1001e-08
3.5875e-06
-1.46127e-08
3.59589e-06
-9.74712e-08
3.59166e-06
3.72996e-08
3.59527e-06
-2.8243e-08
3.5975e-06
1.52857e-08
3.59819e-06
3.54093e-08
3.60189e-06
2.49804e-08
3.60357e-06
4.53481e-08
3.60441e-06
4.80485e-08
3.60617e-06
5.87328e-08
3.60758e-06
8.3607e-08
3.6082e-06
1.062e-07
3.60404e-06
1.39232e-07
3.58797e-06
1.74877e-07
1.83934e-07
3.59097e-06
3.76329e-06
2.56949e-07
3.74873e-06
-2.96425e-07
3.77101e-06
3.09539e-07
3.75285e-06
-2.17706e-07
3.77099e-06
3.28608e-08
3.75937e-06
-2.98821e-09
3.76733e-06
-1.05435e-07
3.76446e-06
4.01756e-08
3.76628e-06
-3.00655e-08
3.7704e-06
1.11616e-08
3.77008e-06
3.57308e-08
3.77415e-06
2.09121e-08
3.77656e-06
4.29361e-08
3.77722e-06
4.73914e-08
3.78047e-06
5.54763e-08
3.78581e-06
7.82733e-08
3.79085e-06
1.01156e-07
3.79981e-06
1.3027e-07
3.81353e-06
1.61158e-07
2.06634e-07
3.79083e-06
3.94325e-06
2.47886e-07
3.92742e-06
-2.80592e-07
3.95122e-06
2.85736e-07
3.93222e-06
-1.9871e-07
3.95092e-06
1.4162e-08
3.93975e-06
8.17992e-09
3.9467e-06
-1.12382e-07
3.9457e-06
4.11741e-08
3.94549e-06
-2.98479e-08
3.95131e-06
5.33603e-09
3.95054e-06
3.65022e-08
3.95434e-06
1.71127e-08
3.9581e-06
3.91788e-08
3.95928e-06
4.6208e-08
3.96094e-06
5.38121e-08
3.95416e-06
8.50584e-08
3.94528e-06
1.10037e-07
3.93959e-06
1.35953e-07
3.93183e-06
1.68927e-07
1.99109e-07
3.93935e-06
4.13177e-06
2.38364e-07
4.1147e-06
-2.63521e-07
4.13984e-06
2.60597e-07
4.12039e-06
-1.7926e-07
4.13916e-06
-4.60345e-09
4.12909e-06
1.82458e-08
4.13444e-06
-1.17732e-07
4.13569e-06
3.99208e-08
4.13341e-06
-2.75685e-08
4.14054e-06
-1.78694e-09
4.13988e-06
3.71629e-08
4.14297e-06
1.40218e-08
4.1461e-06
3.60471e-08
4.14101e-06
5.1299e-08
4.13472e-06
6.01024e-08
4.13287e-06
8.6907e-08
4.12832e-06
1.14589e-07
4.12378e-06
1.40489e-07
4.12193e-06
1.7078e-07
1.94535e-07
4.1265e-06
4.32925e-06
2.28421e-07
4.31105e-06
-2.45329e-07
4.3372e-06
2.34452e-07
4.31781e-06
-1.59874e-07
4.33609e-06
-2.28825e-08
4.32775e-06
2.659e-08
4.33109e-06
-1.21078e-07
4.33465e-06
3.6367e-08
4.33067e-06
-2.35868e-08
4.33834e-06
-9.45838e-09
4.33785e-06
3.7651e-08
4.33684e-06
1.50359e-08
4.33624e-06
3.66394e-08
4.33083e-06
5.67112e-08
4.3267e-06
6.42361e-08
4.32469e-06
8.89177e-08
4.32135e-06
1.17924e-07
4.31824e-06
1.43604e-07
4.31895e-06
1.7007e-07
1.90744e-07
4.32274e-06
4.53608e-06
2.18116e-07
4.51697e-06
-2.26221e-07
4.54363e-06
2.07792e-07
4.52495e-06
-1.41194e-07
4.54216e-06
-4.00956e-08
4.53609e-06
3.26653e-08
4.53725e-06
-1.22241e-07
4.54281e-06
3.0811e-08
4.5377e-06
-1.84783e-08
4.5443e-06
-1.60617e-08
4.54225e-06
3.97038e-08
4.5374e-06
1.98874e-08
4.5375e-06
3.65341e-08
4.53281e-06
6.141e-08
4.52837e-06
6.86736e-08
4.52656e-06
9.07247e-08
4.52418e-06
1.20303e-07
4.52211e-06
1.45672e-07
4.52429e-06
1.67894e-07
1.87689e-07
4.52735e-06
4.7527e-06
2.07526e-07
4.73298e-06
-2.06496e-07
4.7595e-06
1.81268e-07
4.74225e-06
-1.23941e-07
4.75789e-06
-5.57321e-08
4.75442e-06
3.61305e-08
4.75354e-06
-1.2136e-07
4.76048e-06
2.38677e-08
4.75436e-06
-1.23533e-08
4.75763e-06
-1.93351e-08
4.75474e-06
4.25966e-08
4.74871e-06
2.5919e-08
4.74883e-06
3.64101e-08
4.74518e-06
6.5067e-08
4.7403e-06
7.35469e-08
4.73851e-06
9.25147e-08
4.737e-06
1.21817e-07
4.73602e-06
1.46645e-07
4.73816e-06
1.65757e-07
1.84648e-07
4.7412e-06
4.97958e-06
1.96748e-07
4.95962e-06
-1.86541e-07
4.98524e-06
1.5565e-07
4.97013e-06
-1.08829e-07
4.98384e-06
-6.94477e-08
4.98305e-06
3.69208e-08
4.98052e-06
-1.18832e-07
4.9877e-06
1.66907e-08
4.97958e-06
-4.23242e-09
4.9797e-06
-1.94573e-08
4.97756e-06
4.47413e-08
4.97073e-06
3.27484e-08
4.97057e-06
3.65637e-08
4.96803e-06
6.76162e-08
4.96297e-06
7.86015e-08
4.96095e-06
9.45343e-08
4.96022e-06
1.22544e-07
4.96035e-06
1.46523e-07
4.96182e-06
1.64281e-07
1.8124e-07
4.96523e-06
5.21717e-06
1.85892e-07
5.19744e-06
-1.66812e-07
5.22134e-06
1.31755e-07
5.20893e-06
-9.64177e-08
5.2207e-06
-8.12159e-08
5.22235e-06
3.52698e-08
5.21846e-06
-1.14949e-07
5.22437e-06
1.07858e-08
5.21366e-06
6.4778e-09
5.21216e-06
-1.79594e-08
5.21122e-06
4.56846e-08
5.20406e-06
3.99028e-08
5.20316e-06
3.74679e-08
5.20168e-06
6.90914e-08
5.1968e-06
8.34879e-08
5.1944e-06
9.6936e-08
5.19443e-06
1.22508e-07
5.19528e-06
1.45678e-07
5.19659e-06
1.62972e-07
1.77681e-07
5.20014e-06
5.46601e-06
1.75071e-07
5.44699e-06
-1.47795e-07
5.46847e-06
1.10279e-07
5.4589e-06
-8.6854e-08
5.46908e-06
-9.13909e-08
5.47258e-06
3.17734e-08
5.46716e-06
-1.09531e-07
5.47021e-06
7.7378e-09
5.45865e-06
1.80349e-08
5.45589e-06
-1.51963e-08
5.45622e-06
4.53503e-08
5.44914e-06
4.69799e-08
5.44715e-06
3.94655e-08
5.44658e-06
6.966e-08
5.44221e-06
8.78525e-08
5.43943e-06
9.97169e-08
5.44008e-06
1.21861e-07
5.44138e-06
1.4438e-07
5.44295e-06
1.61397e-07
1.74067e-07
5.44657e-06
5.72664e-06
1.64393e-07
5.70882e-06
-1.29982e-07
5.72743e-06
9.16739e-08
5.72026e-06
-7.96899e-08
5.72925e-06
-1.00378e-07
5.73294e-06
2.80805e-08
5.72399e-06
-1.00578e-07
5.7265e-06
5.22648e-09
5.71561e-06
2.89297e-08
5.71168e-06
-1.12693e-08
5.71299e-06
4.40396e-08
5.70641e-06
5.35611e-08
5.70318e-06
4.26936e-08
5.70319e-06
6.96555e-08
5.69967e-06
9.13716e-08
5.69667e-06
1.02712e-07
5.69763e-06
1.20905e-07
5.69932e-06
1.42687e-07
5.70135e-06
1.59371e-07
1.70371e-07
5.70504e-06
5.99964e-06
1.53948e-07
5.9835e-06
-1.13848e-07
5.99907e-06
7.61047e-08
5.9932e-06
-7.38191e-08
6.00038e-06
-1.07558e-07
6.00244e-06
2.60213e-08
5.99164e-06
-8.97719e-08
5.99484e-06
2.02109e-09
5.98542e-06
3.83546e-08
5.98007e-06
-5.91962e-09
5.98205e-06
4.20601e-08
5.9763e-06
5.93051e-08
5.97194e-06
4.70579e-08
5.97208e-06
6.95098e-08
5.96961e-06
9.38441e-08
5.96671e-06
1.05611e-07
5.96765e-06
1.19969e-07
5.96973e-06
1.40604e-07
5.97229e-06
1.56816e-07
1.6653e-07
5.97613e-06
6.28564e-06
1.43801e-07
6.27155e-06
-9.97577e-08
6.28428e-06
6.33688e-08
6.27804e-06
-6.75789e-08
6.28267e-06
-1.12188e-07
6.28473e-06
2.39579e-08
6.27304e-06
-7.80802e-08
6.27628e-06
-1.21394e-09
6.2685e-06
4.61361e-08
6.26171e-06
8.65022e-10
6.26393e-06
3.98444e-08
6.2593e-06
6.39338e-08
6.25407e-06
5.22903e-08
6.25394e-06
6.96318e-08
6.25252e-06
9.52654e-08
6.25011e-06
1.08022e-07
6.25078e-06
1.19302e-07
6.25321e-06
1.38169e-07
6.25632e-06
1.53714e-07
1.62474e-07
6.26037e-06
6.58528e-06
1.33987e-07
6.57341e-06
-8.78898e-08
6.58376e-06
5.30206e-08
6.57599e-06
-5.98051e-08
6.57872e-06
-1.14924e-07
6.58128e-06
2.14031e-08
6.56871e-06
-6.55121e-08
6.57136e-06
-3.86467e-09
6.56533e-06
5.21704e-08
6.55731e-06
8.88582e-09
6.55925e-06
3.79049e-08
6.55591e-06
6.72664e-08
6.5502e-06
5.80055e-08
6.54951e-06
7.03171e-08
6.54898e-06
9.58036e-08
6.54737e-06
1.09628e-07
6.54772e-06
1.18951e-07
6.55041e-06
1.35482e-07
6.55403e-06
1.50096e-07
1.58139e-07
6.55836e-06
6.89926e-06
1.24516e-07
6.88954e-06
-7.81669e-08
6.8982e-06
4.43564e-08
6.88875e-06
-5.03508e-08
6.88941e-06
-1.15585e-07
6.89234e-06
1.84707e-08
6.87907e-06
-5.22443e-08
6.88072e-06
-5.50859e-09
6.87645e-06
5.64347e-08
6.86755e-06
1.77896e-08
6.86872e-06
3.67338e-08
6.86669e-06
6.92955e-08
6.86095e-06
6.37494e-08
6.85956e-06
7.17053e-08
6.85965e-06
9.57086e-08
6.85898e-06
1.10299e-07
6.85918e-06
1.18752e-07
6.862e-06
1.3267e-07
6.86606e-06
1.46033e-07
1.53475e-07
6.87072e-06
7.22828e-06
1.15371e-07
7.22037e-06
-7.02587e-08
7.22836e-06
3.63747e-08
7.21735e-06
-3.93489e-08
7.21543e-06
-1.13666e-07
7.21847e-06
1.54298e-08
7.20472e-06
-3.84929e-08
7.20503e-06
-5.81938e-09
7.20244e-06
5.90257e-08
7.19316e-06
2.70779e-08
7.19314e-06
3.67516e-08
7.19224e-06
7.01916e-08
7.1869e-06
6.90897e-08
7.18484e-06
7.37622e-08
7.18533e-06
9.52224e-08
7.18553e-06
1.10103e-07
7.18584e-06
1.18439e-07
7.18869e-06
1.29814e-07
7.1931e-06
1.41624e-07
1.48468e-07
7.19811e-06
7.57308e-06
1.06517e-07
7.56661e-06
-6.37891e-08
7.57481e-06
2.81779e-08
7.56265e-06
-2.71931e-08
7.5576e-06
-1.0861e-07
7.56033e-06
1.26964e-08
7.54635e-06
-2.45157e-08
7.54506e-06
-4.53179e-09
7.54395e-06
6.01411e-08
7.53478e-06
3.625e-08
7.53337e-06
3.81624e-08
7.53325e-06
7.0305e-08
7.52865e-06
7.36928e-08
7.52611e-06
7.62981e-08
7.5268e-06
9.45377e-08
7.52768e-06
1.0922e-07
7.52835e-06
1.17765e-07
7.53124e-06
1.26926e-07
7.53589e-06
1.36972e-07
1.43128e-07
7.54123e-06
7.93441e-06
9.79185e-08
7.9289e-06
-5.82799e-08
7.93808e-06
1.89953e-08
7.92552e-06
-1.46344e-08
7.91663e-06
-9.9717e-08
7.91859e-06
1.07391e-08
7.90471e-06
-1.06355e-08
7.90164e-06
-1.46517e-09
7.90166e-06
6.01265e-08
7.89308e-06
4.4827e-08
7.89027e-06
4.09716e-08
7.89052e-06
7.00583e-08
7.88683e-06
7.73844e-08
7.8841e-06
7.90253e-08
7.88485e-06
9.37812e-08
7.88624e-06
1.07835e-07
7.88742e-06
1.16586e-07
7.89039e-06
1.23957e-07
7.8952e-06
1.32162e-07
1.37494e-07
7.90083e-06
8.31305e-06
8.95542e-08
8.308e-06
-5.32324e-08
8.31909e-06
7.90485e-09
8.30639e-06
-1.93107e-09
8.29319e-06
-8.65201e-08
8.29401e-06
9.92052e-09
8.28058e-06
2.7911e-09
8.27567e-06
3.44401e-09
8.27633e-06
5.94716e-08
8.26874e-06
5.24146e-08
8.26471e-06
4.49984e-08
8.26492e-06
6.98479e-08
8.26215e-06
8.0159e-08
8.25952e-06
8.16529e-08
8.26031e-06
9.29915e-08
8.26205e-06
1.06095e-07
8.26377e-06
1.14862e-07
8.2669e-06
1.20835e-07
8.27181e-06
1.27245e-07
1.31621e-07
8.27769e-06
8.70978e-06
8.14338e-08
8.70547e-06
-4.89211e-08
8.71705e-06
-3.67751e-09
8.7048e-06
1.03194e-08
8.68775e-06
-6.94669e-08
8.68736e-06
1.03069e-08
8.67484e-06
1.53179e-08
8.66808e-06
1.02049e-08
8.6688e-06
5.87503e-08
8.66245e-06
5.87651e-08
8.65754e-06
4.99069e-08
8.65739e-06
6.99933e-08
8.65543e-06
8.21252e-08
8.65312e-06
8.39591e-08
8.65398e-06
9.21344e-08
8.65597e-06
1.04099e-07
8.65823e-06
1.12607e-07
8.66156e-06
1.17501e-07
8.66657e-06
1.22242e-07
1.25569e-07
8.67262e-06
9.12545e-06
7.36079e-08
9.12237e-06
-4.58424e-08
9.13268e-06
-1.39939e-08
9.11965e-06
2.33478e-08
9.10082e-06
-5.06282e-08
9.09953e-06
1.15887e-08
9.08831e-06
2.65389e-08
9.07982e-06
1.86939e-08
9.08e-06
5.85724e-08
9.07494e-06
6.38219e-08
9.0696e-06
5.52562e-08
9.06888e-06
7.07102e-08
9.06755e-06
8.34511e-08
9.06572e-06
8.57919e-08
9.06666e-06
9.11961e-08
9.06889e-06
1.01865e-07
9.07164e-06
1.09861e-07
9.07523e-06
1.13912e-07
9.08031e-06
1.17156e-07
1.19391e-07
9.08649e-06
9.56091e-06
6.61592e-08
9.55554e-06
-4.04751e-08
9.56137e-06
-1.98211e-08
9.55174e-06
3.29813e-08
9.53328e-06
-3.21766e-08
9.53146e-06
1.34164e-08
9.52179e-06
3.62027e-08
9.51188e-06
2.86083e-08
9.51096e-06
5.94885e-08
9.50705e-06
6.77366e-08
9.50173e-06
6.0577e-08
9.50038e-06
7.20546e-08
9.49949e-06
8.43417e-08
9.49821e-06
8.70731e-08
9.49921e-06
9.01916e-08
9.50172e-06
9.93556e-08
9.50493e-06
1.06659e-07
9.5088e-06
1.10035e-07
9.51397e-06
1.11988e-07
1.13127e-07
9.52023e-06
1.00171e-05
5.91711e-08
1.00064e-05
-2.97518e-08
1.00104e-05
-2.3871e-08
1.00042e-05
3.92787e-08
9.98648e-06
-1.45055e-08
9.98401e-06
1.5888e-08
9.97605e-06
4.41655e-08
9.9652e-06
3.9452e-08
9.96276e-06
6.19336e-08
9.95964e-06
7.08535e-08
9.95473e-06
6.54899e-08
9.95288e-06
7.39024e-08
9.95222e-06
8.50011e-08
9.95146e-06
8.78327e-08
9.95255e-06
8.91025e-08
9.95536e-06
9.65447e-08
9.959e-06
1.03018e-07
9.9632e-06
1.05834e-07
9.96847e-06
1.0672e-07
1.06804e-07
9.9748e-06
1.04951e-05
5.26761e-08
1.04803e-05
-1.49241e-08
1.04847e-05
-2.82999e-08
1.04795e-05
4.45611e-08
1.04617e-05
3.28764e-09
1.04581e-05
1.94313e-08
1.04519e-05
5.04324e-08
1.04407e-05
5.05923e-08
1.04365e-05
6.61267e-08
1.04337e-05
7.36541e-08
1.04294e-05
6.97758e-08
1.04273e-05
7.60004e-08
1.04268e-05
8.55718e-08
1.04264e-05
8.81661e-08
1.04276e-05
8.79163e-08
1.04307e-05
9.34333e-08
1.04348e-05
9.89437e-08
1.04394e-05
1.01269e-07
1.04448e-05
1.01319e-07
1.00438e-07
1.04511e-05
1.09961e-05
4.65664e-08
1.09906e-05
-9.38396e-09
1.09846e-05
-2.23046e-08
1.09781e-05
5.10522e-08
1.09601e-05
2.12715e-08
1.0955e-05
2.45784e-08
1.09501e-05
5.52798e-08
1.09393e-05
6.13987e-08
1.09334e-05
7.20274e-08
1.09304e-05
7.66935e-08
1.09267e-05
7.34285e-08
1.09247e-05
7.80702e-08
1.09241e-05
8.60852e-08
1.09241e-05
8.81596e-08
1.09254e-05
8.66833e-08
1.09288e-05
9.00244e-08
1.09333e-05
9.4444e-08
1.09383e-05
9.63035e-08
1.09438e-05
9.57317e-08
9.40249e-08
1.09503e-05
1.15209e-05
4.10387e-08
1.15073e-05
4.23266e-09
1.15054e-05
-2.0432e-08
1.15013e-05
5.52007e-08
1.14832e-05
3.93385e-08
1.14758e-05
3.20135e-08
1.14718e-05
5.92178e-08
1.14619e-05
7.1325e-08
1.14546e-05
7.92953e-08
1.14509e-05
8.04526e-08
1.14477e-05
7.66101e-08
1.14459e-05
7.9894e-08
1.14455e-05
8.64659e-08
1.14458e-05
8.78366e-08
1.1447e-05
8.54927e-08
1.14507e-05
8.63483e-08
1.14556e-05
8.95517e-08
1.1461e-05
9.09088e-08
1.14668e-05
8.99036e-08
8.7537e-08
1.14733e-05
1.20708e-05
3.60603e-08
1.20567e-05
1.83719e-08
1.20515e-05
-1.5301e-08
1.20494e-05
5.73562e-08
1.20319e-05
5.6851e-08
1.20219e-05
4.20119e-08
1.20181e-05
6.29786e-08
1.20094e-05
8.00104e-08
1.20012e-05
8.74735e-08
1.19964e-05
8.52583e-08
1.19934e-05
7.96559e-08
1.19919e-05
8.13761e-08
1.19918e-05
8.66024e-08
1.19924e-05
8.7212e-08
1.19936e-05
8.42722e-08
1.19974e-05
8.25371e-08
1.20027e-05
8.43165e-08
1.20085e-05
8.50696e-08
1.20146e-05
8.37727e-08
8.09187e-08
1.20212e-05
1.26469e-05
3.1739e-08
1.26327e-05
3.25696e-08
1.26257e-05
-8.29572e-09
1.26239e-05
5.92118e-08
1.26071e-05
7.36148e-08
1.25946e-05
5.45227e-08
1.25902e-05
6.73926e-08
1.25828e-05
8.73348e-08
1.25743e-05
9.6019e-08
1.25684e-05
9.11843e-08
1.25651e-05
8.29539e-08
1.25639e-05
8.25541e-08
1.25641e-05
8.6415e-08
1.2565e-05
8.63284e-08
1.25665e-05
8.27295e-08
1.25702e-05
7.88332e-08
1.25757e-05
7.87809e-08
1.2582e-05
7.88366e-08
1.25885e-05
7.72725e-08
7.4092e-08
1.25953e-05
1.32506e-05
2.81146e-08
1.32406e-05
4.25086e-08
1.32291e-05
3.20166e-09
1.32258e-05
6.25435e-08
1.321e-05
8.94389e-08
1.31953e-05
6.92035e-08
1.31894e-05
7.32361e-08
1.31833e-05
9.34928e-08
1.31749e-05
1.04433e-07
1.3168e-05
9.80856e-08
1.3164e-05
8.68767e-08
1.3163e-05
8.36189e-08
1.31635e-05
8.59149e-08
1.31647e-05
8.51394e-08
1.31667e-05
8.06738e-08
1.31702e-05
7.53295e-08
1.31761e-05
7.2929e-08
1.31825e-05
7.24097e-08
1.31895e-05
7.02969e-08
6.69558e-08
1.31966e-05
1.3883e-05
2.53198e-08
1.38744e-05
5.10291e-08
1.38606e-05
1.7038e-08
1.38563e-05
6.68138e-08
1.38418e-05
1.03998e-07
1.38253e-05
8.56385e-08
1.38174e-05
8.11246e-08
1.38119e-05
9.90094e-08
1.38041e-05
1.12302e-07
1.37965e-05
1.05655e-07
1.37917e-05
9.16514e-08
1.37905e-05
8.48759e-08
1.37912e-05
8.51777e-08
1.37928e-05
8.35421e-08
1.37953e-05
7.81695e-08
1.37988e-05
7.17986e-08
1.3805e-05
6.67741e-08
1.38114e-05
6.60282e-08
1.38189e-05
6.2735e-08
5.94086e-08
1.38265e-05
1.45455e-05
2.34843e-08
1.45345e-05
6.20562e-08
1.45214e-05
3.0141e-08
1.45167e-05
7.14501e-08
1.45037e-05
1.17014e-07
1.4486e-05
1.03306e-07
1.44758e-05
9.13825e-08
1.44702e-05
1.0464e-07
1.44631e-05
1.19412e-07
1.44552e-05
1.13539e-07
1.44495e-05
9.72958e-08
1.44477e-05
8.66841e-08
1.44486e-05
8.43336e-08
1.44506e-05
8.1541e-08
1.44534e-05
7.53332e-08
1.44574e-05
6.78166e-08
1.44634e-05
6.07582e-08
1.44702e-05
5.92182e-08
1.4478e-05
5.49148e-08
5.1277e-08
1.44862e-05
1.52398e-05
2.2598e-08
1.52315e-05
7.03725e-08
1.52149e-05
4.67167e-08
1.52083e-05
7.79905e-08
1.5197e-05
1.28349e-07
1.51787e-05
1.21564e-07
1.5166e-05
1.04083e-07
1.51595e-05
1.11171e-07
1.51531e-05
1.25865e-07
1.51452e-05
1.21431e-07
1.51388e-05
1.03677e-07
1.51361e-05
8.93268e-08
1.51369e-05
8.36199e-08
1.51391e-05
7.9254e-08
1.51424e-05
7.21196e-08
1.51469e-05
6.3261e-08
1.51525e-05
5.51809e-08
1.51604e-05
5.13063e-08
1.5168e-05
4.72762e-08
4.24271e-08
1.51769e-05
1.59672e-05
2.27721e-08
1.59603e-05
7.71798e-08
1.59414e-05
6.57152e-08
1.59331e-05
8.62791e-08
1.59229e-05
1.38501e-07
1.59047e-05
1.39749e-07
1.58897e-05
1.19102e-07
1.58817e-05
1.19222e-07
1.58754e-05
1.32087e-07
1.58677e-05
1.29118e-07
1.58608e-05
1.10632e-07
1.58572e-05
9.28834e-08
1.58575e-05
8.34039e-08
1.58599e-05
7.6805e-08
1.58635e-05
6.85171e-08
1.58684e-05
5.83706e-08
1.58742e-05
4.93684e-08
1.58824e-05
4.30872e-08
1.5891e-05
3.86764e-08
3.37249e-08
1.58997e-05
1.67293e-05
2.40797e-08
1.67178e-05
8.87078e-08
1.67027e-05
8.07668e-08
1.66927e-05
9.62636e-08
1.6683e-05
1.48263e-07
1.66653e-05
1.574e-07
1.66483e-05
1.3609e-07
1.66383e-05
1.2924e-07
1.66317e-05
1.3865e-07
1.66243e-05
1.36577e-07
1.66168e-05
1.18089e-07
1.66124e-05
9.72787e-08
1.66118e-05
8.40532e-08
1.66142e-05
7.44137e-08
1.66181e-05
6.46219e-08
1.66232e-05
5.32481e-08
1.66297e-05
4.29035e-08
1.6638e-05
3.47623e-08
1.66476e-05
2.91037e-08
2.47396e-08
1.66565e-05
1.75282e-05
2.62515e-08
1.75259e-05
9.09515e-08
1.75029e-05
1.0381e-07
1.74889e-05
1.10224e-07
1.74789e-05
1.58332e-07
1.74619e-05
1.7433e-07
1.74434e-05
1.54588e-07
1.74311e-05
1.41535e-07
1.74236e-05
1.46156e-07
1.74162e-05
1.44008e-07
1.74083e-05
1.25996e-07
1.74031e-05
1.0251e-07
1.74013e-05
8.57875e-08
1.74033e-05
7.24297e-08
1.74074e-05
6.05708e-08
1.74129e-05
4.77423e-08
1.74199e-05
3.58397e-08
1.74287e-05
2.605e-08
1.74386e-05
1.91811e-08
1.42641e-08
1.74491e-05
1.83652e-05
2.93718e-08
1.83559e-05
1.00248e-07
1.83402e-05
1.19572e-07
1.83238e-05
1.26623e-07
1.83125e-05
1.69633e-07
1.82962e-05
1.90621e-07
1.82766e-05
1.7413e-07
1.82619e-05
1.56223e-07
1.82529e-05
1.55196e-07
1.82451e-05
1.51821e-07
1.82368e-05
1.34318e-07
1.82305e-05
1.08746e-07
1.82276e-05
8.87448e-08
1.82288e-05
7.12291e-08
1.82328e-05
5.65692e-08
1.82387e-05
4.18415e-08
1.82463e-05
2.81932e-08
1.82557e-05
1.66786e-08
1.82664e-05
8.47268e-09
2.65852e-09
1.8278e-05
1.92425e-05
3.32771e-08
1.92363e-05
1.06464e-07
1.92178e-05
1.38081e-07
1.91988e-05
1.45628e-07
1.91857e-05
1.82703e-07
1.91698e-05
2.06535e-07
1.91495e-05
1.94368e-07
1.91324e-05
1.73307e-07
1.91214e-05
1.66279e-07
1.91126e-05
1.60564e-07
1.91037e-05
1.43251e-07
1.90963e-05
1.16184e-07
1.90919e-05
9.30736e-08
1.9092e-05
7.11861e-08
1.90956e-05