/*--------------------------------*- C++ -*----------------------------------*\
| =========                 |                                                 |
| \\      /  F ield         | OpenFOAM: The Open Source CFD Toolbox           |
|  \\    /   O peration     | Version:  v2012                                 |
|   \\  /    A nd           | Website:  www.openfoam.com                      |
|    \\/     M anipulation  |                                                 |
\*---------------------------------------------------------------------------*/
FoamFile
{
    version     2.0;
    format      ascii;
    class       volVectorField;
    location    "3.45";
    object      U;
}
// * * * * * * * * * * * * * * * * * * * * * * * * * * * * * * * * * * * * * //

dimensions      [0 1 -1 0 0 0 0];


internalField   nonuniform List<vector> 
17600
(
(0.842311 0.00317949 0)
(1.1483 -0.00563294 0)
(0.848763 0.0066576 0)
(1.13983 -0.00574418 0)
(0.838087 0.00257916 0)
(1.13471 -0.00100187 0)
(0.841494 -0.0012983 0)
(1.12637 0.000603706 0)
(0.851894 0.000571604 0)
(1.1237 0.0007551 0)
(0.860438 0.00200251 0)
(1.11903 0.00117156 0)
(0.864858 0.00245326 0)
(1.11335 0.000978082 0)
(0.864077 0.00268215 0)
(1.10834 0.000823462 0)
(0.858011 0.00295985 0)
(1.10405 0.000721083 0)
(0.845003 0.00375024 0)
(1.09951 0.000976098 0)
(0.851801 0.00315721 0)
(1.13501 -0.00548137 0)
(0.856918 0.0065331 0)
(1.12367 -0.00544743 0)
(0.847816 0.00243968 0)
(1.11687 -0.000820885 0)
(0.856118 -0.00144632 0)
(1.10766 0.000688033 0)
(0.871248 0.000384577 0)
(1.10175 0.00085726 0)
(0.885594 0.00183747 0)
(1.09106 0.00132481 0)
(0.898907 0.00232806 0)
(1.07577 0.00117823 0)
(0.911576 0.002658 0)
(1.05545 0.000993733 0)
(0.926403 0.00327257 0)
(1.02687 0.000620018 0)
(0.945307 0.00521241 0)
(0.984313 0.000169422 0)
(0.870391 0.00316726 0)
(1.11277 -0.00532849 0)
(0.873879 0.00642546 0)
(1.09904 -0.00517583 0)
(0.86876 0.00229333 0)
(1.08751 -0.000713663 0)
(0.884324 -0.00154495 0)
(1.07499 0.000684491 0)
(0.90439 0.00026975 0)
(1.06546 0.000839295 0)
(0.924056 0.00180861 0)
(1.05054 0.00128182 0)
(0.942667 0.00243388 0)
(1.03199 0.0010853 0)
(0.958387 0.00293645 0)
(1.01193 0.000828062 0)
(0.970796 0.00373437 0)
(0.991829 0.000501783 0)
(0.97688 0.00570589 0)
(0.973966 0.00119774 0)
(0.895318 0.00321699 0)
(1.08597 -0.00520051 0)
(0.897364 0.0063801 0)
(1.07179 -0.00500008 0)
(0.897458 0.00225132 0)
(1.0555 -0.000750116 0)
(0.918661 -0.00152055 0)
(1.04025 0.0005438 0)
(0.938737 0.000291298 0)
(1.03081 0.000663982 0)
(0.957234 0.0019265 0)
(1.01872 0.00107392 0)
(0.972478 0.00265511 0)
(1.00654 0.000879791 0)
(0.981669 0.00323472 0)
(0.996275 0.000672102 0)
(0.985055 0.0040565 0)
(0.987914 0.000538877 0)
(0.98217 0.00592211 0)
(0.980267 0.00232235 0)
(0.922459 0.00329092 0)
(1.05943 -0.00509108 0)
(0.923217 0.00636978 0)
(1.04714 -0.00490661 0)
(0.927531 0.0023075 0)
(1.02911 -0.00088485 0)
(0.949746 -0.00141187 0)
(1.01435 0.000358768 0)
(0.964766 0.00035954 0)
(1.00876 0.000463897 0)
(0.977544 0.00203591 0)
(1.00301 0.000889453 0)
(0.986751 0.00279232 0)
(0.998231 0.000762765 0)
(0.990363 0.00338594 0)
(0.994435 0.00063935 0)
(0.989887 0.00422006 0)
(0.990128 0.000670946 0)
(0.985737 0.00608561 0)
(0.983856 0.00334203 0)
(0.9476 0.00337046 0)
(1.03728 -0.00499691 0)
(0.947134 0.00636687 0)
(1.02862 -0.00487041 0)
(0.953375 0.00240698 0)
(1.0125 -0.0010497 0)
(0.972341 -0.00128178 0)
(1.0008 0.000211615 0)
(0.980776 0.000404911 0)
(0.999454 0.000319818 0)
(0.987912 0.00207785 0)
(0.998529 0.000774251 0)
(0.993112 0.00283515 0)
(0.997682 0.00071363 0)
(0.994547 0.00344446 0)
(0.996213 0.000659196 0)
(0.993423 0.00430423 0)
(0.99292 0.00086001 0)
(0.989569 0.00620668 0)
(0.9873 0.00426677 0)
(0.967741 0.00343733 0)
(1.02161 -0.0049138 0)
(0.966243 0.00635346 0)
(1.01701 -0.00486477 0)
(0.972366 0.00250093 0)
(1.00488 -0.00119392 0)
(0.986348 -0.0011679 0)
(0.996516 0.000120943 0)
(0.989679 0.000420565 0)
(0.997498 0.000228709 0)
(0.993275 0.00207475 0)
(0.998673 0.000694478 0)
(0.996678 0.00283502 0)
(0.999202 0.000682311 0)
(0.997591 0.00346542 0)
(0.998513 0.00070091 0)
(0.996527 0.00433249 0)
(0.995748 0.00112429 0)
(0.992978 0.00624405 0)
(0.990844 0.00514731 0)
(0.981808 0.0034788 0)
(1.01216 -0.00483757 0)
(0.979722 0.00632042 0)
(1.01087 -0.00486822 0)
(0.984688 0.00256532 0)
(1.00276 -0.00129856 0)
(0.994213 -0.00107591 0)
(0.996652 7.12516e-05 0)
(0.994666 0.00042584 0)
(0.998188 0.000167066 0)
(0.996445 0.00205613 0)
(0.999834 0.000627748 0)
(0.999074 0.00281941 0)
(1.00074 0.000656169 0)
(0.99988 0.00346392 0)
(1.00044 0.000763722 0)
(0.998952 0.00431128 0)
(0.998102 0.0014571 0)
(0.995722 0.00620399 0)
(0.993842 0.00597865 0)
(0.990468 0.00349178 0)
(1.00716 -0.00476653 0)
(0.988339 0.00626779 0)
(1.00797 -0.00486802 0)
(0.991948 0.00259719 0)
(1.00288 -0.00136648 0)
(0.998443 -0.000998855 0)
(0.997958 4.38787e-05 0)
(0.997638 0.000434391 0)
(0.999304 0.000121553 0)
(0.998493 0.00203637 0)
(1.00084 0.000570272 0)
(1.00066 0.00279529 0)
(1.0018 0.000639214 0)
(1.00142 0.00343885 0)
(1.00175 0.000853404 0)
(1.00062 0.00424372 0)
(0.99977 0.00184028 0)
(0.997736 0.00611479 0)
(0.996091 0.00673687 0)
(0.995277 0.00348155 0)
(1.00465 -0.00470059 0)
(0.993519 0.00620085 0)
(1.00652 -0.00485816 0)
(0.995936 0.00260288 0)
(1.0034 -0.00140733 0)
(1.0007 -0.000931936 0)
(0.999125 2.72456e-05 0)
(0.999511 0.00044809 0)
(1.00025 8.71923e-05 0)
(0.999878 0.00201879 0)
(1.00157 0.000523401 0)
(1.0017 0.00276246 0)
(1.00248 0.000637498 0)
(1.00238 0.0033856 0)
(1.00259 0.000975492 0)
(1.0017 0.0041331 0)
(1.00088 0.00225606 0)
(0.999143 0.0060071 0)
(0.99771 0.0073968 0)
(0.997799 0.00345655 0)
(1.00328 -0.00463942 0)
(0.996585 0.00612467 0)
(1.0056 -0.00483606 0)
(0.998039 0.00258905 0)
(1.00369 -0.00142969 0)
(1.00189 -0.000873756 0)
(0.999907 1.5863e-05 0)
(1.00074 0.000462174 0)
(1.001 6.17249e-05 0)
(1.00088 0.00200052 0)
(1.00217 0.00048907 0)
(1.00243 0.00271802 0)
(1.00299 0.000656302 0)
(1.00302 0.00330066 0)
(1.00316 0.00113178 0)
(1.00242 0.00398752 0)
(1.00164 0.00268624 0)
(1.00015 0.00591281 0)
(0.998905 0.00793944 0)
(0.999131 0.00342385 0)
(1.00238 -0.00458185 0)
(0.998442 0.00604172 0)
(1.00488 -0.00480065 0)
(0.999148 0.00255946 0)
(1.00374 -0.00143841 0)
(1.00251 -0.000825711 0)
(1.00039 6.75308e-06 0)
(1.00158 0.000470677 0)
(1.00162 4.36214e-05 0)
(1.00167 0.00197613 0)
(1.00272 0.000469501 0)
(1.00303 0.0026581 0)
(1.00345 0.000699516 0)
(1.00352 0.00318449 0)
(1.00362 0.00131878 0)
(1.00296 0.00382275 0)
(1.00222 0.00310835 0)
(1.00094 0.00586063 0)
(0.99984 0.00835798 0)
(0.999871 0.00338742 0)
(1.00176 -0.00452615 0)
(0.999597 0.00595237 0)
(1.00431 -0.0047519 0)
(0.999756 0.00251567 0)
(1.00366 -0.0014353 0)
(1.00282 -0.000789625 0)
(1.00069 -7.21594e-07 0)
(1.00215 0.000469102 0)
(1.00213 3.21786e-05 0)
(1.0023 0.0019405 0)
(1.00321 0.000466516 0)
(1.00353 0.00257907 0)
(1.00387 0.000768576 0)
(1.00395 0.0030419 0)
(1.00401 0.00152807 0)
(1.00341 0.00366107 0)
(1.00269 0.00349877 0)
(1.00158 0.00586852 0)
(1.0006 0.00866125 0)
(1.00029 0.00334866 0)
(1.00134 -0.00447048 0)
(1.00031 0.00585608 0)
(1.00391 -0.00469051 0)
(1.00011 0.00245857 0)
(1.00356 -0.00142073 0)
(1.00297 -0.000766638 0)
(1.00088 -5.00634e-06 0)
(1.00252 0.000454732 0)
(1.00251 2.79931e-05 0)
(1.00276 0.00189032 0)
(1.00362 0.000480433 0)
(1.00394 0.0024793 0)
(1.00422 0.000861196 0)
(1.0043 0.00288104 0)
(1.00433 0.00174655 0)
(1.00377 0.00352571 0)
(1.00307 0.00384037 0)
(1.00211 0.0059392 0)
(1.00124 0.00887067 0)
(1.00052 0.00330768 0)
(1.0011 -0.00441313 0)
(1.00073 0.00575204 0)
(1.00365 -0.00461725 0)
(1.00032 0.0023888 0)
(1.00347 -0.00139438 0)
(1.00305 -0.000757353 0)
(1.00099 -3.30086e-06 0)
(1.00275 0.000425599 0)
(1.00277 3.34337e-05 0)
(1.00308 0.00182295 0)
(1.00391 0.000511096 0)
(1.00423 0.00235903 0)
(1.00448 0.000972607 0)
(1.00456 0.002712 0)
(1.00456 0.00195924 0)
(1.00406 0.00343269 0)
(1.00338 0.00412994 0)
(1.00255 0.00606301 0)
(1.00177 0.00901266 0)
(1.00064 0.00326418 0)
(1.00098 -0.0043526 0)
(1.00096 0.00563941 0)
(1.00348 -0.00453256 0)
(1.00046 0.00230644 0)
(1.00339 -0.00135531 0)
(1.0031 -0.000762698 0)
(1.00107 7.85449e-06 0)
(1.00288 0.000379654 0)
(1.00295 5.13916e-05 0)
(1.00329 0.00173633 0)
(1.00411 0.000558115 0)
(1.00443 0.00222038 0)
(1.00465 0.00109545 0)
(1.00476 0.00254767 0)
(1.00473 0.00215176 0)
(1.00429 0.00338737 0)
(1.00363 0.00437524 0)
(1.00292 0.00622238 0)
(1.00222 0.00910992 0)
(1.00069 0.00321778 0)
(1.00093 -0.00428755 0)
(1.00107 0.00551727 0)
(1.00338 -0.00443639 0)
(1.00055 0.00221079 0)
(1.00332 -0.00130242 0)
(1.00314 -0.000783776 0)
(1.00111 3.13097e-05 0)
(1.00296 0.000315789 0)
(1.00306 8.31529e-05 0)
(1.00342 0.00163103 0)
(1.00422 0.000618362 0)
(1.00456 0.00206921 0)
(1.00476 0.00121786 0)
(1.00489 0.00240465 0)
(1.00485 0.00231355 0)
(1.00447 0.00338756 0)
(1.00384 0.00458532 0)
(1.00325 0.00639695 0)
(1.00263 0.00917587 0)
(1.00071 0.00316818 0)
(1.00092 -0.00421691 0)
(1.00112 0.00538502 0)
(1.0033 -0.00432878 0)
(1.00063 0.00210152 0)
(1.00325 -0.00123571 0)
(1.00318 -0.000821121 0)
(1.00114 6.94182e-05 0)
(1.00301 0.000233609 0)
(1.00313 0.000127963 0)
(1.0035 0.00151014 0)
(1.00429 0.000686269 0)
(1.00465 0.00191477 0)
(1.00482 0.00132494 0)
(1.00499 0.00229557 0)
(1.00493 0.00244505 0)
(1.00463 0.00342711 0)
(1.00404 0.00477043 0)
(1.00355 0.00657371 0)
(1.003 0.00921881 0)
(1.00072 0.00311512 0)
(1.00092 -0.00413984 0)
(1.00115 0.00524198 0)
(1.00323 -0.00420896 0)
(1.0007 0.00197731 0)
(1.00318 -0.00115341 0)
(1.00323 -0.000877103 0)
(1.00116 0.000124892 0)
(1.00305 0.00013513 0)
(1.00319 0.000183177 0)
(1.00356 0.00137821 0)
(1.00433 0.000754465 0)
(1.00471 0.00176949 0)
(1.00486 0.0014037 0)
(1.00507 0.00221955 0)
(1.005 0.00255437 0)
(1.00477 0.00349575 0)
(1.00423 0.00494228 0)
(1.00384 0.00675121 0)
(1.00336 0.00925055 0)
(1.00072 0.00305839 0)
(1.00093 -0.00405544 0)
(1.00116 0.0050867 0)
(1.00316 -0.00407501 0)
(1.00077 0.00183528 0)
(1.00311 -0.00105224 0)
(1.00328 -0.000954278 0)
(1.00119 0.000196446 0)
(1.00308 2.84035e-05 0)
(1.00323 0.000246156 0)
(1.00361 0.00124232 0)
(1.00436 0.000811646 0)
(1.00476 0.00164565 0)
(1.00489 0.00144961 0)
(1.00515 0.00216519 0)
(1.00508 0.00264938 0)
(1.00492 0.00358045 0)
(1.00442 0.00510687 0)
(1.00412 0.00693215 0)
(1.0037 0.00928643 0)
(1.00071 0.00299768 0)
(1.00094 -0.00396247 0)
(1.00116 0.00491746 0)
(1.00309 -0.00392583 0)
(1.00085 0.00167449 0)
(1.00304 -0.000933275 0)
(1.00334 -0.00105014 0)
(1.00121 0.00028013 0)
(1.00311 -9.00829e-05 0)
(1.00328 0.000311258 0)
(1.00365 0.00111391 0)
(1.00438 0.000845546 0)
(1.00481 0.001549 0)
(1.00492 0.00146899 0)
(1.00522 0.00212232 0)
(1.00515 0.00273727 0)
(1.00507 0.00367415 0)
(1.00463 0.00526429 0)
(1.0044 0.00711623 0)
(1.00404 0.00933973 0)
(1.0007 0.00293281 0)
(1.00096 -0.00386027 0)
(1.00117 0.00473366 0)
(1.00302 -0.00376174 0)
(1.00092 0.00149525 0)
(1.00297 -0.000797714 0)
(1.0034 -0.00116303 0)
(1.00124 0.000374583 0)
(1.00314 -0.000219169 0)
(1.00332 0.000365748 0)
(1.00369 0.0010025 0)
(1.0044 0.000847683 0)
(1.00485 0.00147588 0)
(1.00495 0.00147213 0)
(1.0053 0.0020835 0)
(1.00524 0.00282036 0)
(1.00523 0.00377354 0)
(1.00484 0.00541171 0)
(1.00468 0.00729578 0)
(1.00437 0.00941674 0)
(1.00069 0.00286391 0)
(1.00098 -0.00374798 0)
(1.00117 0.00453417 0)
(1.00296 -0.00358084 0)
(1.00099 0.00129543 0)
(1.00291 -0.00064405 0)
(1.00345 -0.00129186 0)
(1.00127 0.000476005 0)
(1.00316 -0.000346558 0)
(1.00338 0.000404243 0)
(1.00373 0.000913174 0)
(1.00443 0.000818554 0)
(1.00489 0.00141314 0)
(1.00498 0.00146889 0)
(1.00538 0.0020386 0)
(1.00534 0.00289765 0)
(1.0054 0.00387071 0)
(1.00508 0.00554834 0)
(1.00498 0.00745912 0)
(1.00469 0.00951837 0)
(1.00066 0.00278917 0)
(1.00101 -0.00362173 0)
(1.00116 0.00431321 0)
(1.00289 -0.00337775 0)
(1.00106 0.00106938 0)
(1.00285 -0.000471721 0)
(1.0035 -0.00143659 0)
(1.0013 0.000580697 0)
(1.00318 -0.000466383 0)
(1.00343 0.000416737 0)
(1.00376 0.000854971 0)
(1.00446 0.000760241 0)
(1.00494 0.00135362 0)
(1.00502 0.00145922 0)
(1.00547 0.0019816 0)
(1.00545 0.00295863 0)
(1.00558 0.00395665 0)
(1.00533 0.00566317 0)
(1.00528 0.00759961 0)
(1.00501 0.00964953 0)
(1.00063 0.00271133 0)
(1.00105 -0.0034851 0)
(1.00114 0.00407567 0)
(1.00283 -0.00316355 0)
(1.00113 0.000832292 0)
(1.0028 -0.000297462 0)
(1.00354 -0.00157758 0)
(1.00135 0.000663442 0)
(1.00319 -0.000545633 0)
(1.0035 0.000365283 0)
(1.00378 0.000846854 0)
(1.0045 0.000659531 0)
(1.00498 0.00131486 0)
(1.00506 0.00143 0)
(1.00556 0.00192878 0)
(1.00558 0.00296898 0)
(1.00576 0.00402593 0)
(1.0056 0.00567488 0)
(1.00559 0.00769498 0)
(1.00534 0.00979265 0)
(1.00059 0.00262754 0)
(1.00109 -0.00333216 0)
(1.00112 0.0038175 0)
(1.00278 -0.002934 0)
(1.00119 0.000580966 0)
(1.00275 -0.000118146 0)
(1.00358 -0.00171175 0)
(1.0014 0.000726391 0)
(1.00318 -0.000587484 0)
(1.00358 0.000274048 0)
(1.0038 0.000856254 0)
(1.00454 0.00055095 0)
(1.00502 0.00126513 0)
(1.00511 0.00141982 0)
(1.00565 0.00187051 0)
(1.00573 0.00295014 0)
(1.00595 0.00405559 0)
(1.00589 0.00560652 0)
(1.00594 0.00763932 0)
(1.00569 0.00976304 0)
(1.00053 0.00253768 0)
(1.00114 -0.0031618 0)
(1.0011 0.00353534 0)
(1.00273 -0.0026845 0)
(1.00125 0.000309235 0)
(1.00271 5.74624e-05 0)
(1.0036 -0.00183994 0)
(1.00146 0.000766579 0)
(1.00317 -0.000603115 0)
(1.00366 0.000171472 0)
(1.00381 0.000861593 0)
(1.00458 0.000465039 0)
(1.00506 0.00118053 0)
(1.00515 0.00144844 0)
(1.00574 0.00181982 0)
(1.00588 0.00294315 0)
(1.00613 0.00413425 0)
(1.00618 0.00561732 0)
(1.0063 0.00759079 0)
(1.00609 0.00975759 0)
(1.00047 0.00244585 0)
(1.00119 -0.00298091 0)
(1.00106 0.00324313 0)
(1.00267 -0.00243567 0)
(1.0013 4.55702e-05 0)
(1.00267 0.000212194 0)
(1.00362 -0.00193731 0)
(1.00154 0.000746181 0)
(1.00314 -0.000565552 0)
(1.00375 3.10015e-05 0)
(1.00382 0.000889275 0)
(1.00461 0.000392041 0)
(1.00512 0.0010839 0)
(1.00521 0.00149693 0)
(1.00583 0.00184074 0)
(1.00607 0.00297986 0)
(1.00633 0.00430776 0)
(1.00647 0.00573554 0)
(1.00666 0.00762564 0)
(1.0065 0.00975806 0)
(1.00041 0.00234557 0)
(1.00123 -0.00277981 0)
(1.00103 0.00293341 0)
(1.00262 -0.00217809 0)
(1.00135 -0.000213914 0)
(1.00263 0.000358345 0)
(1.00364 -0.00200376 0)
(1.00161 0.000692713 0)
(1.0031 -0.000496865 0)
(1.00385 -0.000123428 0)
(1.00383 0.000918545 0)
(1.00464 0.000372233 0)
(1.00518 0.000999454 0)
(1.00527 0.00159521 0)
(1.00592 0.001939 0)
(1.00626 0.00305387 0)
(1.00655 0.00448139 0)
(1.00676 0.00591091 0)
(1.00703 0.00767962 0)
(1.00692 0.00973802 0)
(1.00035 0.00224377 0)
(1.00127 -0.00257106 0)
(1.001 0.00261566 0)
(1.00256 -0.00192483 0)
(1.00141 -0.000462891 0)
(1.00259 0.000468797 0)
(1.00364 -0.00202991 0)
(1.0017 0.000613332 0)
(1.00306 -0.000403868 0)
(1.00394 -0.000278717 0)
(1.00385 0.000936224 0)
(1.00466 0.00042817 0)
(1.00525 0.000960612 0)
(1.00535 0.00175093 0)
(1.00602 0.00209563 0)
(1.00647 0.00313125 0)
(1.00679 0.00462074 0)
(1.00705 0.00608229 0)
(1.00739 0.00772391 0)
(1.00735 0.00966278 0)
(1.00029 0.00213821 0)
(1.0013 -0.00235455 0)
(1.00098 0.0022981 0)
(1.00249 -0.00169492 0)
(1.00146 -0.000687111 0)
(1.00256 0.000533415 0)
(1.00364 -0.00202041 0)
(1.00178 0.000504319 0)
(1.00301 -0.000285757 0)
(1.00402 -0.000398721 0)
(1.00388 0.000955752 0)
(1.00468 0.000546579 0)
(1.00532 0.000956997 0)
(1.00544 0.0019171 0)
(1.00611 0.00229373 0)
(1.00668 0.00320565 0)
(1.00704 0.00470932 0)
(1.00735 0.00621003 0)
(1.00774 0.00775562 0)
(1.00776 0.00954685 0)
(1.00024 0.00202852 0)
(1.00132 -0.00212838 0)
(1.00095 0.00198237 0)
(1.00241 -0.0014933 0)
(1.00152 -0.000888631 0)
(1.00252 0.000566029 0)
(1.00364 -0.00199358 0)
(1.00187 0.000389553 0)
(1.00297 -0.000152638 0)
(1.00411 -0.000439162 0)
(1.00393 0.000996674 0)
(1.00469 0.000712863 0)
(1.00541 0.000963951 0)
(1.00555 0.00204278 0)
(1.00619 0.00249685 0)
(1.00688 0.00328136 0)
(1.00731 0.0047359 0)
(1.00765 0.00627503 0)
(1.00808 0.00775627 0)
(1.00816 0.00940114 0)
(1.00019 0.0019202 0)
(1.00132 -0.00190972 0)
(1.00094 0.00169044 0)
(1.00233 -0.00132875 0)
(1.00157 -0.00106279 0)
(1.00249 0.000563099 0)
(1.00363 -0.0019443 0)
(1.00197 0.000270815 0)
(1.00292 1.90068e-05 0)
(1.00418 -0.000420734 0)
(1.00399 0.00105114 0)
(1.00469 0.000911091 0)
(1.00549 0.000981994 0)
(1.00567 0.00210934 0)
(1.00628 0.00268473 0)
(1.00707 0.00336553 0)
(1.00758 0.00471835 0)
(1.00796 0.00627766 0)
(1.00842 0.00771659 0)
(1.00854 0.00923062 0)
(1.00015 0.00180895 0)
(1.00131 -0.00169378 0)
(1.00092 0.00142473 0)
(1.00224 -0.00119689 0)
(1.00163 -0.00121297 0)
(1.00245 0.00052216 0)
(1.00361 -0.00186369 0)
(1.00207 0.000157943 0)
(1.00289 0.000234828 0)
(1.00425 -0.000369409 0)
(1.00407 0.00108331 0)
(1.00469 0.00112377 0)
(1.00557 0.00102703 0)
(1.0058 0.00212614 0)
(1.00638 0.00285233 0)
(1.00724 0.00346974 0)
(1.00786 0.00469401 0)
(1.00828 0.00624009 0)
(1.00874 0.00765164 0)
(1.0089 0.00905391 0)
(1.00012 0.00169877 0)
(1.00129 -0.00148925 0)
(1.00091 0.00119017 0)
(1.00215 -0.00109381 0)
(1.00169 -0.0013476 0)
(1.00242 0.000465672 0)
(1.0036 -0.00176044 0)
(1.00217 8.28786e-05 0)
(1.00285 0.00046306 0)
(1.0043 -0.000293779 0)
(1.00416 0.00107185 0)
(1.00468 0.0013204 0)
(1.00563 0.00110286 0)
(1.00595 0.00210398 0)
(1.00649 0.00298238 0)
(1.0074 0.00358873 0)
(1.00813 0.00468015 0)
(1.0086 0.00617728 0)
(1.00907 0.00756684 0)
(1.00925 0.00887581 0)
(1.00009 0.00159539 0)
(1.00125 -0.00131136 0)
(1.0009 0.000998892 0)
(1.00205 -0.00101053 0)
(1.00174 -0.00146614 0)
(1.0024 0.000414872 0)
(1.00358 -0.00161974 0)
(1.00229 3.76165e-05 0)
(1.00283 0.00067769 0)
(1.00433 -0.000192067 0)
(1.00427 0.00102885 0)
(1.00467 0.00148484 0)
(1.00567 0.0012126 0)
(1.0061 0.0020649 0)
(1.00662 0.00306481 0)
(1.00755 0.00370619 0)
(1.00839 0.0046785 0)
(1.00893 0.00609514 0)
(1.0094 0.00745793 0)
(1.00958 0.0086897 0)
(1.00006 0.00148947 0)
(1.00122 -0.00114607 0)
(1.00089 0.000837515 0)
(1.00194 -0.000927635 0)
(1.0018 -0.00156062 0)
(1.00238 0.000376052 0)
(1.00357 -0.00142693 0)
(1.00241 -8.3456e-06 0)
(1.00281 0.000863611 0)
(1.00434 -6.15371e-05 0)
(1.00437 0.000969342 0)
(1.00468 0.00161836 0)
(1.0057 0.00135561 0)
(1.00625 0.00204031 0)
(1.00676 0.00310717 0)
(1.0077 0.00381482 0)
(1.00864 0.00469213 0)
(1.00925 0.00600462 0)
(1.00973 0.00732682 0)
(1.00989 0.00849306 0)
(1.00004 0.00138819 0)
(1.00118 -0.00100697 0)
(1.00087 0.000704206 0)
(1.00184 -0.000830191 0)
(1.00185 -0.00162452 0)
(1.00239 0.00034236 0)
(1.00355 -0.00121142 0)
(1.00253 -5.69855e-05 0)
(1.0028 0.00100849 0)
(1.00434 9.68336e-05 0)
(1.00449 0.000899062 0)
(1.0047 0.00171592 0)
(1.00571 0.00151981 0)
(1.00639 0.0020446 0)
(1.00693 0.00311461 0)
(1.00785 0.00390189 0)
(1.00887 0.00471145 0)
(1.00957 0.00590656 0)
(1.01005 0.00717133 0)
(1.0102 0.0082804 0)
(1.00002 0.00129342 0)
(1.00113 -0.000898775 0)
(1.00086 0.000592843 0)
(1.00173 -0.000709604 0)
(1.0019 -0.00165308 0)
(1.0024 0.000301531 0)
(1.00353 -0.000988458 0)
(1.00266 -9.80044e-05 0)
(1.0028 0.00110905 0)
(1.00432 0.000281604 0)
(1.0046 0.000839963 0)
(1.00474 0.00177599 0)
(1.00572 0.00169638 0)
(1.00652 0.00208219 0)
(1.00711 0.00309849 0)
(1.00802 0.00395595 0)
(1.00909 0.00472481 0)
(1.00987 0.00580052 0)
(1.01037 0.00699268 0)
(1.0105 0.00804975 0)
(0.999999 0.00120166 0)
(1.00109 -0.00081344 0)
(1.00085 0.000490345 0)
(1.00162 -0.000562231 0)
(1.00195 -0.00163912 0)
(1.00243 0.000252217 0)
(1.0035 -0.000759879 0)
(1.00278 -0.000114311 0)
(1.00282 0.00117162 0)
(1.00428 0.000486733 0)
(1.0047 0.000815865 0)
(1.00481 0.00180022 0)
(1.00573 0.00187171 0)
(1.00663 0.00215251 0)
(1.00729 0.00307605 0)
(1.00819 0.00397447 0)
(1.0093 0.00472343 0)
(1.01016 0.00568741 0)
(1.01069 0.00679517 0)
(1.01079 0.00780145 0)
(0.999983 0.00111283 0)
(1.00105 -0.000743415 0)
(1.00085 0.000392009 0)
(1.00151 -0.000400571 0)
(1.00199 -0.00158037 0)
(1.00248 0.00020244 0)
(1.00348 -0.000528094 0)
(1.0029 -0.000102682 0)
(1.00286 0.00120085 0)
(1.00425 0.000699493 0)
(1.00479 0.000834973 0)
(1.00489 0.0017927 0)
(1.00575 0.0020216 0)
(1.00673 0.00224428 0)
(1.00748 0.00305647 0)
(1.00838 0.00395984 0)
(1.0095 0.00470011 0)
(1.01043 0.00556745 0)
(1.011 0.00658482 0)
(1.01107 0.00753881 0)
(0.999968 0.00102725 0)
(1.00101 -0.000684004 0)
(1.00086 0.000286612 0)
(1.00141 -0.000238056 0)
(1.00202 -0.00147058 0)
(1.00254 0.000163834 0)
(1.00347 -0.000294581 0)
(1.00302 -7.00051e-05 0)
(1.00291 0.00120073 0)
(1.00421 0.000899651 0)
(1.00487 0.000891646 0)
(1.00499 0.00176632 0)
(1.00578 0.00213024 0)
(1.00682 0.00234286 0)
(1.00766 0.00304541 0)
(1.00857 0.00392253 0)
(1.0097 0.00465549 0)
(1.01069 0.00544124 0)
(1.0113 0.00636564 0)
(1.01136 0.00726201 0)
(0.999957 0.000941906 0)
(1.00096 -0.000625332 0)
(1.00088 0.000161926 0)
(1.00132 -7.98708e-05 0)
(1.00205 -0.00131279 0)
(1.00261 0.000144372 0)
(1.00346 -6.20515e-05 0)
(1.00312 -6.54883e-06 0)
(1.00299 0.00118244 0)
(1.00418 0.00107715 0)
(1.00493 0.000979718 0)
(1.0051 0.00174127 0)
(1.00583 0.00219937 0)
(1.00691 0.00243357 0)
(1.00784 0.0030438 0)
(1.00877 0.00387359 0)
(1.0099 0.00459337 0)
(1.01094 0.00530797 0)
(1.01159 0.00613772 0)
(1.01164 0.00696847 0)
(0.999947 0.000859003 0)
(1.00092 -0.000568259 0)
(1.00091 2.48422e-05 0)
(1.00125 6.51644e-05 0)
(1.00207 -0.00111195 0)
(1.0027 0.000143695 0)
(1.00346 0.000163273 0)
(1.00322 9.88663e-05 0)
(1.00308 0.00115672 0)
(1.00416 0.00122958 0)
(1.00499 0.0010963 0)
(1.00522 0.00173299 0)
(1.0059 0.00224063 0)
(1.00699 0.0025043 0)
(1.008 0.00304424 0)
(1.00897 0.00381582 0)
(1.0101 0.00451411 0)
(1.01117 0.0051654 0)
(1.01187 0.0059005 0)
(1.01191 0.00665816 0)
(0.999941 0.000780004 0)
(1.00088 -0.000516329 0)
(1.00095 -0.000112489 0)
(1.0012 0.000216475 0)
(1.00209 -0.000862375 0)
(1.0028 0.000165733 0)
(1.00347 0.000375732 0)
(1.0033 0.00024571 0)
(1.00318 0.00113402 0)
(1.00416 0.00134852 0)
(1.00503 0.00123146 0)
(1.00533 0.00174543 0)
(1.00598 0.00226494 0)
(1.00708 0.00255364 0)
(1.00816 0.00304025 0)
(1.00917 0.00375077 0)
(1.01029 0.0044211 0)
(1.01138 0.00501728 0)
(1.01212 0.00566109 0)
(1.01217 0.00634015 0)
(0.999937 0.000708307 0)
(1.00083 -0.000463545 0)
(1.001 -0.000223226 0)
(1.00118 0.000363019 0)
(1.0021 -0.000589743 0)
(1.0029 0.000200928 0)
(1.0035 0.000563192 0)
(1.00337 0.00043092 0)
(1.00329 0.00113286 0)
(1.00418 0.00143551 0)
(1.00507 0.00137321 0)
(1.00544 0.00178285 0)
(1.00607 0.00228339 0)
(1.00717 0.00258668 0)
(1.00832 0.00302597 0)
(1.00936 0.00367396 0)
(1.01049 0.00431048 0)
(1.01158 0.00485876 0)
(1.01236 0.00541734 0)
(1.01242 0.006014 0)
(0.999935 0.000644085 0)
(1.00078 -0.000382195 0)
(1.00107 -0.000289234 0)
(1.00118 0.000474439 0)
(1.00212 -0.000322453 0)
(1.003 0.000230526 0)
(1.00354 0.000711857 0)
(1.00343 0.000635582 0)
(1.00339 0.00116058 0)
(1.00422 0.00149054 0)
(1.00511 0.00149901 0)
(1.00554 0.00183783 0)
(1.00617 0.00230225 0)
(1.00726 0.00260666 0)
(1.00847 0.00299962 0)
(1.00956 0.00358421 0)
(1.01068 0.00418252 0)
(1.01177 0.00468909 0)
(1.01257 0.00517097 0)
(1.01266 0.00568365 0)
(0.999937 0.00055254 0)
(1.00074 -0.000233072 0)
(1.00114 -0.000311393 0)
(1.00121 0.000543825 0)
(1.00212 -8.40121e-05 0)
(1.0031 0.000249363 0)
(1.00361 0.000815963 0)
(1.00349 0.000843631 0)
(1.00348 0.001227 0)
(1.00427 0.00152999 0)
(1.00516 0.00159841 0)
(1.00564 0.00189731 0)
(1.00627 0.00232033 0)
(1.00735 0.00261024 0)
(1.0086 0.00295429 0)
(1.00975 0.00347425 0)
(1.01087 0.00403168 0)
(1.01195 0.00450264 0)
(1.01276 0.00491955 0)
(1.01286 0.00535121 0)
(0.999941 0.000496281 0)
(1.00069 -0.000130881 0)
(1.0012 -0.000305403 0)
(1.00124 0.00062638 0)
(1.00213 0.000182451 0)
(1.00319 0.000314667 0)
(1.00369 0.000903407 0)
(1.00355 0.00105508 0)
(1.00356 0.00134027 0)
(1.00432 0.00157946 0)
(1.00521 0.00168016 0)
(1.00573 0.0019611 0)
(1.00636 0.00234822 0)
(1.00743 0.00261324 0)
(1.00873 0.0029024 0)
(1.00992 0.00335344 0)
(1.01105 0.00386572 0)
(1.01211 0.00430457 0)
(1.01292 0.00466817 0)
(1.01304 0.00502454 0)
(0.999947 0.000455339 0)
(1.00064 -3.8545e-05 0)
(1.00127 -0.0002771 0)
(1.00131 0.000704326 0)
(1.00213 0.000454386 0)
(1.00327 0.00041469 0)
(1.00379 0.00096876 0)
(1.00362 0.0012505 0)
(1.00362 0.0014886 0)
(1.00436 0.00164919 0)
(1.00526 0.00174606 0)
(1.00582 0.00201655 0)
(1.00644 0.0023761 0)
(1.00751 0.00261537 0)
(1.00883 0.00284322 0)
(1.01008 0.00321831 0)
(1.01122 0.00367906 0)
(1.01226 0.00408728 0)
(1.01306 0.0044092 0)
(1.01319 0.00469971 0)
(0.999956 0.000387013 0)
(1.00059 0.000125745 0)
(1.00133 -0.000226235 0)
(1.00138 0.000734866 0)
(1.00213 0.000698652 0)
(1.00334 0.000540546 0)
(1.00389 0.00101361 0)
(1.0037 0.00141629 0)
(1.00368 0.001653 0)
(1.0044 0.00173972 0)
(1.00532 0.00179665 0)
(1.00591 0.00204891 0)
(1.00653 0.00238778 0)
(1.00757 0.00260791 0)
(1.00892 0.00277454 0)
(1.01022 0.00306628 0)
(1.01138 0.00346586 0)
(1.0124 0.00384183 0)
(1.01318 0.0041326 0)
(1.01331 0.00436993 0)
(0.999965 0.000335323 0)
(1.00054 0.00028848 0)
(1.00138 -0.000145611 0)
(1.00147 0.000763299 0)
(1.00213 0.000945609 0)
(1.00338 0.000720162 0)
(1.004 0.00106698 0)
(1.00379 0.00155631 0)
(1.00372 0.00182912 0)
(1.00441 0.00186048 0)
(1.00535 0.00185479 0)
(1.00599 0.00206831 0)
(1.00661 0.0023901 0)
(1.00761 0.00259744 0)
(1.00897 0.00271079 0)
(1.01033 0.00291268 0)
(1.01152 0.00323542 0)
(1.01254 0.00356968 0)
(1.01328 0.00383364 0)
(1.0134 0.00402909 0)
(0.999976 0.000292024 0)
(1.00049 0.00042289 0)
(1.00141 -2.89647e-05 0)
(1.00157 0.000796597 0)
(1.00214 0.00117627 0)
(1.00339 0.00093192 0)
(1.0041 0.00113632 0)
(1.00389 0.00166718 0)
(1.00377 0.00201053 0)
(1.00441 0.00201298 0)
(1.00537 0.0019362 0)
(1.00606 0.00208215 0)
(1.00668 0.00237839 0)
(1.00765 0.00257552 0)
(1.009 0.00264786 0)
(1.0104 0.00275971 0)
(1.01164 0.00299145 0)
(1.01265 0.0032694 0)
(1.01336 0.00350469 0)
(1.01346 0.00366813 0)
(0.999987 0.000271714 0)
(1.00045 0.000513685 0)
(1.00143 0.000111604 0)
(1.00167 0.000838538 0)
(1.00216 0.0013999 0)
(1.00339 0.00118624 0)
(1.00419 0.00124819 0)
(1.00401 0.00175618 0)
(1.00382 0.00218092 0)
(1.00438 0.00218515 0)
(1.00536 0.00204122 0)
(1.00612 0.00209712 0)
(1.00675 0.00235083 0)
(1.00767 0.0025365 0)
(1.00899 0.00258358 0)
(1.01042 0.00261332 0)
(1.01171 0.00275043 0)
(1.01274 0.00295412 0)
(1.01343 0.00315102 0)
(1.0135 0.00328627 0)
(0.999998 0.000246547 0)
(1.0004 0.000619455 0)
(1.00143 0.000279175 0)
(1.00178 0.0008837 0)
(1.0022 0.0015948 0)
(1.00337 0.00146368 0)
(1.00424 0.00140875 0)
(1.00413 0.00184064 0)
(1.00388 0.00233295 0)
(1.00435 0.00237356 0)
(1.00532 0.00217917 0)
(1.00614 0.00213027 0)
(1.0068 0.00231741 0)
(1.00769 0.00247744 0)
(1.00897 0.00250733 0)
(1.01041 0.00246639 0)
(1.01174 0.00251027 0)
(1.0128 0.0026243 0)
(1.01348 0.00276697 0)
(1.01352 0.00286913 0)
(1.00001 0.000224367 0)
(1.00036 0.000734035 0)
(1.00142 0.00045895 0)
(1.00188 0.000946611 0)
(1.00225 0.00176033 0)
(1.00333 0.00175755 0)
(1.00427 0.00161229 0)
(1.00424 0.001944 0)
(1.00394 0.00245805 0)
(1.00431 0.00256334 0)
(1.00524 0.00233953 0)
(1.00612 0.00219019 0)
(1.00683 0.00228073 0)
(1.00769 0.0023997 0)
(1.00891 0.00240458 0)
(1.01034 0.00231249 0)
(1.01171 0.00226389 0)
(1.0128 0.00228651 0)
(1.01349 0.00235889 0)
(1.01352 0.00241938 0)
(1.00002 0.000228544 0)
(1.00033 0.000821092 0)
(1.0014 0.000658803 0)
(1.00198 0.00104486 0)
(1.00232 0.00190249 0)
(1.00329 0.00204741 0)
(1.00426 0.0018508 0)
(1.00433 0.00206941 0)
(1.00402 0.0025647 0)
(1.00426 0.00273809 0)
(1.00514 0.00251662 0)
(1.00606 0.00228122 0)
(1.00682 0.00225677 0)
(1.00766 0.0023132 0)
(1.00883 0.00228165 0)
(1.01023 0.00214766 0)
(1.01162 0.00201515 0)
(1.01275 0.00194698 0)
(1.01346 0.00193977 0)
(1.01348 0.00194702 0)
(1.00002 0.000231006 0)
(1.0003 0.000908839 0)
(1.00136 0.000881632 0)
(1.00205 0.00117671 0)
(1.0024 0.00204034 0)
(1.00325 0.00232554 0)
(1.00422 0.00214249 0)
(1.00439 0.00224044 0)
(1.00409 0.00268869 0)
(1.00422 0.00290555 0)
(1.005 0.00271496 0)
(1.00594 0.00240522 0)
(1.00675 0.00226492 0)
(1.00759 0.00222867 0)
(1.00871 0.00215003 0)
(1.01007 0.00196695 0)
(1.01146 0.00176331 0)
(1.01263 0.00160385 0)
(1.01336 0.00151444 0)
(1.01339 0.00145723 0)
(1.00003 0.000247133 0)
(1.00027 0.000983623 0)
(1.00131 0.00111112 0)
(1.00211 0.00133917 0)
(1.00248 0.00217856 0)
(1.00321 0.00259184 0)
(1.00415 0.00246149 0)
(1.00441 0.00245981 0)
(1.00414 0.00282862 0)
(1.00417 0.00306453 0)
(1.00483 0.00291056 0)
(1.00576 0.00255139 0)
(1.00662 0.00229872 0)
(1.00747 0.00215331 0)
(1.00855 0.00200609 0)
(1.00986 0.00176661 0)
(1.01124 0.00149409 0)
(1.01242 0.00124734 0)
(1.01319 0.00107204 0)
(1.01324 0.000944943 0)
(1.00003 0.000281444 0)
(1.00026 0.00104803 0)
(1.00126 0.0013343 0)
(1.00214 0.0015362 0)
(1.00255 0.00231646 0)
(1.00318 0.00284421 0)
(1.00405 0.00279077 0)
(1.00439 0.00272437 0)
(1.00417 0.00299456 0)
(1.00411 0.00322586 0)
(1.00465 0.00310503 0)
(1.00552 0.00272032 0)
(1.00641 0.00236415 0)
(1.00728 0.00210011 0)
(1.00833 0.00186219 0)
(1.00959 0.00155108 0)
(1.01094 0.00120515 0)
(1.01214 0.000868868 0)
(1.01293 0.000604136 0)
(1.01301 0.000400678 0)
(1.00003 0.000312202 0)
(1.00025 0.00112657 0)
(1.0012 0.0015551 0)
(1.00214 0.00176493 0)
(1.00262 0.0024851 0)
(1.00316 0.0030902 0)
(1.00394 0.00314147 0)
(1.00432 0.00303672 0)
(1.00416 0.00321252 0)
(1.00404 0.00340828 0)
(1.00444 0.00331307 0)
(1.00523 0.00291443 0)
(1.00612 0.00246648 0)
(1.00701 0.00207703 0)
(1.00802 0.0017257 0)
(1.00923 0.00132436 0)
(1.01055 0.000889076 0)
(1.01175 0.000457951 0)
(1.01258 9.37591e-05 0)
(1.0127 -0.00020201 0)
(1.00003 0.000352324 0)
(1.00024 0.00120788 0)
(1.00114 0.00176516 0)
(1.00213 0.00202533 0)
(1.00268 0.00267879 0)
(1.00315 0.00332879 0)
(1.00382 0.00348682 0)
(1.0042 0.00338707 0)
(1.0041 0.00347444 0)
(1.00394 0.00362476 0)
(1.0042 0.00354229 0)
(1.00489 0.00313767 0)
(1.00574 0.0026146 0)
(1.00663 0.00209518 0)
(1.00762 0.00161154 0)
(1.00877 0.00109415 0)
(1.01005 0.000546713 0)
(1.01125 2.41591e-06 0)
(1.0121 -0.000481747 0)
(1.01227 -0.000888591 0)
(1.00003 0.000404009 0)
(1.00024 0.00127835 0)
(1.00109 0.00196493 0)
(1.00209 0.00230407 0)
(1.00271 0.00290091 0)
(1.00313 0.00356202 0)