/*--------------------------------*- C++ -*----------------------------------*\
| =========                 |                                                 |
| \\      /  F ield         | OpenFOAM: The Open Source CFD Toolbox           |
|  \\    /   O peration     | Version:  v2012                                 |
|   \\  /    A nd           | Website:  www.openfoam.com                      |
|    \\/     M anipulation  |                                                 |
\*---------------------------------------------------------------------------*/
FoamFile
{
    version     2.0;
    format      ascii;
    class       volScalarField;
    location    "4.35";
    object      p;
}
// * * * * * * * * * * * * * * * * * * * * * * * * * * * * * * * * * * * * * //

dimensions      [0 2 -2 0 0 0 0];


internalField   nonuniform List<scalar> 
17600
(
5.10453e-11
0.00025545
-0.000281357
-0.00120462
-0.00125132
-0.00141851
-0.0014571
-0.00232263
-0.00227198
-0.003178
-0.00313661
-0.00393208
-0.00384867
-0.00393419
-0.00389028
-0.00325557
-0.00268289
-0.000696698
0.000932151
0.00479851
7.5176e-07
0.000254493
-0.000280592
-0.00120452
-0.00125077
-0.00142035
-0.00145668
-0.00232575
-0.00227118
-0.00318324
-0.00313495
-0.00393868
-0.00384628
-0.00394351
-0.00388598
-0.00327611
-0.00267462
-0.000765672
0.000948082
0.00447636
1.64308e-06
0.000252826
-0.000278906
-0.0012047
-0.00125044
-0.00142276
-0.00145702
-0.00233076
-0.00227157
-0.00319133
-0.00313356
-0.00394871
-0.00384327
-0.00395652
-0.00388089
-0.00329947
-0.0026674
-0.000839032
0.000947208
0.00404454
2.3877e-06
0.00025078
-0.000276689
-0.00120536
-0.00125057
-0.00142526
-0.00145862
-0.00233691
-0.00227366
-0.00320079
-0.00313358
-0.00395906
-0.00384118
-0.003969
-0.00387672
-0.00332268
-0.00266127
-0.000912641
0.000915691
0.0036231
3.10194e-06
0.000248291
-0.000273963
-0.00120651
-0.00125099
-0.00142792
-0.00146112
-0.00234407
-0.00227642
-0.00321125
-0.00313371
-0.00396901
-0.00383892
-0.0039807
-0.00387272
-0.00334624
-0.00265704
-0.000991016
0.000853296
0.00322338
3.86289e-06
0.000245326
-0.000270675
-0.00120812
-0.00125149
-0.00143071
-0.00146403
-0.00235194
-0.00227902
-0.00322223
-0.00313312
-0.0039784
-0.003836
-0.00399192
-0.00386883
-0.00337057
-0.00265701
-0.00107367
0.000761377
0.00284683
4.67643e-06
0.000241969
-0.000266874
-0.00121004
-0.00125194
-0.00143353
-0.00146697
-0.00236022
-0.00228126
-0.00323339
-0.0031321
-0.00398713
-0.00383313
-0.0040027
-0.00386612
-0.00339575
-0.00266305
-0.00115979
0.000640562
0.00248889
5.54831e-06
0.000238327
-0.000262665
-0.00121215
-0.00125227
-0.00143633
-0.00146982
-0.00236882
-0.00228328
-0.00324469
-0.00313117
-0.00399526
-0.00383117
-0.00401277
-0.00386602
-0.00342108
-0.00267704
-0.00124865
0.000491722
0.00214359
6.50962e-06
0.000234475
-0.000258136
-0.00121434
-0.0012525
-0.00143912
-0.00147261
-0.00237777
-0.0022853
-0.00325614
-0.00313068
-0.00400279
-0.00383067
-0.00402178
-0.00386967
-0.00344565
-0.00270097
-0.0013399
0.000316964
0.00180484
7.605e-06
0.000230446
-0.000253352
-0.00121663
-0.00125272
-0.00144193
-0.00147542
-0.00238707
-0.00228751
-0.00326767
-0.00313091
-0.00400953
-0.00383202
-0.00402931
-0.00387792
-0.00346888
-0.00273655
-0.00143396
0.000119659
0.00146693
8.87768e-06
0.000226244
-0.000248353
-0.00121902
-0.00125296
-0.00144477
-0.00147832
-0.00239665
-0.00229008
-0.00327908
-0.00313215
-0.00401509
-0.00383586
-0.0040348
-0.00389142
-0.0034906
-0.00278482
-0.00153248
-9.5853e-05
0.00112544
1.03652e-05
0.00022186
-0.000243161
-0.00122153
-0.00125326
-0.00144762
-0.00148135
-0.00240643
-0.00229318
-0.00329014
-0.00313477
-0.00401899
-0.00384294
-0.00403772
-0.00391086
-0.00351122
-0.00284576
-0.00163852
-0.000324744
0.000777919
1.21018e-05
0.000217283
-0.000237784
-0.00122417
-0.00125363
-0.00145047
-0.00148457
-0.0024163
-0.002297
-0.00330054
-0.00313921
-0.00402073
-0.00385394
-0.00403768
-0.00393699
-0.00353159
-0.00291805
-0.00175586
-0.000562516
0.000424047
1.41221e-05
0.000212505
-0.000232225
-0.00122691
-0.00125407
-0.00145328
-0.00148803
-0.00242611
-0.00230177
-0.00330993
-0.00314596
-0.00401985
-0.00386948
-0.00403457
-0.00397012
-0.00355358
-0.0029994
-0.00188803
-0.000806014
6.51258e-05
1.64611e-05
0.00020752
-0.000226486
-0.00122974
-0.00125461
-0.00145603
-0.0014918
-0.0024357
-0.00230775
-0.00331791
-0.00315555
-0.00401592
-0.00388984
-0.00402856
-0.00401011
-0.00357987
-0.00308713
-0.00203758
-0.001054
-0.000296373
1.91516e-05
0.000202326
-0.000220566
-0.00123265
-0.00125528
-0.00145864
-0.00149597
-0.00244486
-0.00231525
-0.0033241
-0.00316848
-0.00400865
-0.00391509
-0.00401699
-0.00405603
-0.00361364
-0.00317906
-0.00220577
-0.00130671
-0.000657429
2.22222e-05
0.000196923
-0.000214464
-0.00123555
-0.00125614
-0.00146105
-0.00150068
-0.00245338
-0.00232462
-0.00332809
-0.00318522
-0.00399795
-0.0039454
-0.00400831
-0.00410592
-0.00365811
-0.00327431
-0.00239229
-0.00156554
-0.00101534
2.57022e-05
0.000191316
-0.000208188
-0.00123838
-0.00125727
-0.00146313
-0.00150611
-0.002461
-0.00233621
-0.00332954
-0.00320606
-0.003984
-0.00398043
-0.00400077
-0.00415752
-0.00371594
-0.0033732
-0.00259513
-0.00183278
-0.00136841
2.96199e-05
0.00018554
-0.000201763
-0.00124106
-0.00125877
-0.00146475
-0.00151245
-0.00246743
-0.00235034
-0.00332821
-0.00323113
-0.00396721
-0.00401927
-0.0039967
-0.00420897
-0.00378883
-0.00347684
-0.00281106
-0.00211074
-0.00171584
3.39851e-05
0.000179644
-0.000195216
-0.00124351
-0.00126079
-0.00146572
-0.00151995
-0.0024724
-0.00236728
-0.00332402
-0.00326021
-0.00394847
-0.00406055
-0.00399843
-0.0042593
-0.00387783
-0.00358738
-0.00303652
-0.00240076
-0.00205768
3.87894e-05
0.000173698
-0.000188567
-0.00124556
-0.00126352
-0.00146586
-0.00152886
-0.0024757
-0.00238717
-0.00331708
-0.00329267
-0.00392905
-0.00410267
-0.00400781
-0.00430843
-0.00398314
-0.00370816
-0.00326867
-0.00270298
-0.00239502
4.40181e-05
0.000167815
-0.000181873
-0.00124704
-0.00126719
-0.00146498
-0.00153937
-0.00247724
-0.00240996
-0.00330782
-0.00332772
-0.00390751
-0.00414414
-0.00402629
-0.00435694
-0.00410393
-0.00384324
-0.0035064
-0.00301669
-0.00272992
4.96353e-05
0.00016218
-0.000175225
-0.00124779
-0.00127196
-0.00146295
-0.00155161
-0.0024771
-0.0024354
-0.00329681
-0.0033647
-0.00389083
-0.00418359
-0.00405477
-0.00440623
-0.0042387
-0.00399648
-0.00375058
-0.00334091
-0.00306536
5.55469e-05
0.000157044
-0.000168713
-0.00124761
-0.00127801
-0.00145965
-0.00156564
-0.00247546
-0.00246312
-0.00328479
-0.00340256
-0.00387694
-0.00422011
-0.00409329
-0.00445794
-0.0043857
-0.00417057
-0.00400323
-0.00367526
-0.00340527
6.16313e-05
0.00015268
-0.000162395
-0.00124635
-0.00128556
-0.00145512
-0.00158124
-0.00247277
-0.00249235
-0.00327284
-0.00343996
-0.00386685
-0.0042534
-0.00414137
-0.00451327
-0.00454238
-0.00436696
-0.00426786
-0.00402263
-0.00375516
6.77533e-05
0.000149415
-0.000156335
-0.00124389
-0.0012947
-0.00144963
-0.00159796
-0.00246982
-0.002522
-0.00326181
-0.00347608
-0.003861
-0.00428354
-0.00419839
-0.00457266
-0.00470289
-0.00457987
-0.00454701
-0.00439541
-0.00412367
7.37271e-05
0.000147649
-0.000150572
-0.00124015
-0.00130544
-0.00144355
-0.0016153
-0.00246729
-0.00255146
-0.00325184
-0.0035107
-0.00385895
-0.00431134
-0.00426411
-0.00463729
-0.00486434
-0.00480603
-0.00483223
-0.00477134
-0.00454315
7.93386e-05
0.000147817
-0.000145024
-0.00123526
-0.00131758
-0.00143757
-0.00163258
-0.00246585
-0.00258026
-0.00324286
-0.0035441
-0.00386063
-0.00433659
-0.00433891
-0.00471071
-0.00503519
-0.00505218
-0.00512807
-0.00515433
-0.00497511
8.43058e-05
0.000150349
-0.000139473
-0.00122944
-0.00133078
-0.00143249
-0.00164922
-0.00246581
-0.00260828
-0.00323467
-0.0035766
-0.00386825
-0.0043604
-0.00442618
-0.00480308
-0.00521251
-0.0053122
-0.0054349
-0.00554036
-0.00541169
8.83337e-05
0.000155528
-0.000133512
-0.00122303
-0.0013445
-0.00142903
-0.001665
-0.0024668
-0.00263633
-0.00322645
-0.00360947
-0.00388709
-0.00439003
-0.00452432
-0.00491146
-0.00539433
-0.00558111
-0.00574942
-0.00592268
-0.00584626
9.12237e-05
0.000163605
-0.000126641
-0.00121657
-0.00135806
-0.00142763
-0.00168001
-0.00246854
-0.00266561
-0.00321934
-0.00364442
-0.00391911
-0.00442487
-0.00462738
-0.00503182
-0.00558028
-0.005856
-0.00606967
-0.00629851
-0.00627219
9.28153e-05
0.000174676
-0.000118125
-0.0012106
-0.00137108
-0.00142841
-0.00169509
-0.00247059
-0.00269816
-0.00321931
-0.00368132
-0.00396176
-0.00446449
-0.00473183
-0.00516108
-0.00576912
-0.00613524
-0.00639665
-0.00666869
-0.00668633
9.29705e-05
0.000188556
-0.000106806
-0.00120562
-0.00138345
-0.00143111
-0.00171193
-0.00247323
-0.00273578
-0.00322812
-0.00371714
-0.00401091
-0.00450868
-0.00483688
-0.0052975
-0.00596057
-0.00641866
-0.00673254
-0.00703547
-0.00708702
9.1693e-05
0.000204743
-9.1287e-05
-0.00120153
-0.00139566
-0.00143533
-0.00173266
-0.00247908
-0.00277859
-0.00324465
-0.00375012
-0.00406325
-0.0045582
-0.00494337
-0.00544073
-0.00615528
-0.00670557
-0.00707674
-0.00740052
-0.00747321
8.91595e-05
0.000222314
-6.99011e-05
-0.00119746
-0.00140883
-0.00144109
-0.00176006
-0.00249271
-0.00282405
-0.00326687
-0.00378003
-0.00411662
-0.00461407
-0.00505319
-0.00559067
-0.00635271
-0.00699299
-0.00742614
-0.00776511
-0.00784582
8.56763e-05
0.000240223
-4.15743e-05
-0.00119234
-0.00142418
-0.00144907
-0.00179608
-0.00251344
-0.00286887
-0.00329342
-0.0038079
-0.00416987
-0.00467618
-0.00516819
-0.00574757
-0.00655163
-0.00727696
-0.00777711
-0.00813088
-0.0082082
8.16385e-05
0.000257371
-5.65438e-06
-0.0011846
-0.00144419
-0.00146158
-0.00183924
-0.00254024
-0.00291143
-0.00332347
-0.00383682
-0.00422308
-0.00474345
-0.00528909
-0.00591234
-0.00675172
-0.00755381
-0.00812541
-0.00849854
-0.00856469
7.76568e-05
0.000272625
3.5502e-05
-0.00117293
-0.00147031
-0.00147847
-0.00188697
-0.00257316
-0.0029514
-0.00335639
-0.0038698
-0.00427755
-0.00481421
-0.00541448
-0.00608559
-0.00695432
-0.00782151
-0.00846588
-0.00886612
-0.00891841
7.46072e-05
0.000284896
7.96534e-05
-0.00115647
-0.00150308
-0.00149961
-0.0019378
-0.00261305
-0.00298974
-0.00339131
-0.00390831
-0.00433504
-0.00488661
-0.0055413
-0.00626652
-0.00716229
-0.00808084
-0.00879408
-0.0092291
-0.00926995
7.3381e-05
0.000293349
0.000124625
-0.00113412
-0.00153934
-0.00152586
-0.00199036
-0.00266031
-0.00302804
-0.00342639
-0.00395221
-0.00439703
-0.00495996
-0.00566658
-0.00645296
-0.0073783
-0.00833492
-0.00910782
-0.00958194
-0.0096171
7.48412e-05
0.000297616
0.000167744
-0.00110522
-0.00157963
-0.00155854
-0.00204317
-0.00271445
-0.00306801
-0.00345986
-0.00400024
-0.00446506
-0.00503502
-0.00578819
-0.0066415
-0.00760253
-0.00858721
-0.00940706
-0.00991971
-0.00995566
7.96336e-05
0.000297709
0.000206573
-0.0010701
-0.00162329
-0.00159862
-0.0020946
-0.00277415
-0.00311162
-0.00349101
-0.00405051
-0.00454064
-0.0051139
-0.00590461
-0.00682736
-0.00783241
-0.00884019
-0.00969353
-0.0102393
-0.0102808
8.83231e-05
0.000294108
0.000239301
-0.00103029
-0.0016704
-0.00164658
-0.00214253
-0.00283732
-0.003161
-0.00352027
-0.00410048
-0.0046241
-0.00519969
-0.00601563
-0.00700545
-0.00806366
-0.00909516
-0.00997024
-0.0105399
-0.0105881
0.000101497
0.000288126
0.000264863
-0.000990576
-0.00172312
-0.00170125
-0.00218329
-0.00290039
-0.00321775
-0.00354925
-0.00414732
-0.00471369
-0.00529524
-0.0061231
-0.00717164
-0.00829082
-0.00935181
-0.0102408
-0.010823
-0.0108749
0.000119717
0.00028207
0.000281788
-0.000957478
-0.00178467
-0.00176167
-0.00221384
-0.00295835
-0.00328196
-0.00358018
-0.00418833
-0.00480552
-0.005402
-0.00623048
-0.00732373
-0.00850739
-0.0096071
-0.0105078
-0.0110922
-0.0111409
0.00014462
0.000277836
0.000286026
-0.000941797
-0.00185305
-0.00182799
-0.00223514
-0.00300844
-0.00335327
-0.00361623
-0.00422198
-0.00489468
-0.00551893
-0.00634198
-0.00746258
-0.00870721
-0.00985501
-0.0107712
-0.0113509
-0.0113877
0.000177854
0.000275523
0.000267765
-0.000933756
-0.00192112
-0.00190507
-0.00225329
-0.00304924
-0.00343035
-0.0036603
-0.00424914
-0.00497592
-0.00564201
-0.0064608
-0.00759155
-0.00888664
-0.0100886
-0.0110287
-0.0116022
-0.0116192
0.000206062
0.000268447
0.000250638
-0.000917052
-0.00198788
-0.00199599
-0.00227509
-0.00307942
-0.00351044
-0.00371552
-0.00427323
-0.00504575
-0.00576576
-0.00658812
-0.00771539
-0.0090451
-0.0103012
-0.0112749
-0.0118466
-0.0118392
0.000224553
0.00025147
0.000246487
-0.000895808
-0.00205086
-0.00210035
-0.00230439
-0.00309868
-0.00358928
-0.00378303
-0.00429756
-0.00510064
-0.0058833
-0.00672219
-0.00783828
-0.00918448
-0.010488
-0.0115025
-0.0120809
-0.0120496
0.000263562
0.000241893
0.000187244
-0.000886773
-0.002104
-0.002216
-0.00234457
-0.0031068
-0.00366051
-0.00386061
-0.00432441
-0.00513811
-0.00598649
-0.00685785
-0.00796249
-0.00930827
-0.0106472
-0.0117049
-0.0122997
-0.0122499
0.000294767
0.00022383
0.000127796
-0.000880255
-0.0021455
-0.00233877
-0.00239854
-0.00310683
-0.00372068
-0.00394652
-0.00435814
-0.00516132
-0.00607006
-0.00698787
-0.00808755
-0.00942015
-0.0107793
-0.0118773
-0.0124963
-0.0124367
0.000313864
0.000200751
6.65168e-05
-0.000877374
-0.00217964
-0.00246548
-0.00246967
-0.00310342
-0.00376643
-0.00403588
-0.00440164
-0.00517452
-0.00613025
-0.00710303
-0.00820872
-0.00952372
-0.0108883
-0.0120185
-0.012666
-0.012606
0.000325896
0.000174609
1.979e-06
-0.000884009
-0.00220686
-0.00259323
-0.00255867
-0.00310065
-0.00379405
-0.00412162
-0.00445623
-0.00518272
-0.00616441
-0.00719371
-0.00831823
-0.00961925
-0.0109779
-0.0121299
-0.0128055
-0.0127526
0.000332162
0.000146287
-7.77218e-05
-0.000906116
-0.00222808
-0.0027181
-0.00266554
-0.00310349
-0.00380194
-0.00419631
-0.00452037
-0.00519063
-0.00617167
-0.00725069
-0.00840604
-0.00970111
-0.0110489
-0.0122122
-0.0129116
-0.0128708
0.000331342
0.000116035
-0.000174422
-0.000946243
-0.00224548
-0.00283577
-0.00278759
-0.00311597
-0.00379101
-0.00425137
-0.00458636
-0.00520049
-0.00615612
-0.00726985
-0.00846253
-0.00976147
-0.0110998
-0.0122664
-0.0129835
-0.012957
0.000316203
7.5167e-05
-0.00027345
-0.00100263
-0.00225999
-0.00294139
-0.00292
-0.00314276
-0.00376646
-0.0042815
-0.00464517
-0.00521289
-0.00612479
-0.00725143
-0.0084793
-0.00979136
-0.0111245
-0.0122893
-0.0130197
-0.0130077
0.000287831
2.24028e-05
-0.000380121
-0.00107708
-0.00227816
-0.00303472
-0.0030594
-0.00318849
-0.00373555
-0.00428374
-0.00468661
-0.00522228
-0.00608061
-0.0071965
-0.00844902
-0.00977906
-0.0111119
-0.0122758
-0.013017
-0.01302
0.000243705
-2.27808e-05
-0.000496573
-0.00117052
-0.00230518
-0.00311635
-0.0032002
-0.00325287
-0.00370433
-0.00425762
-0.00470061
-0.00521932
-0.00602228
-0.00710724
-0.00836758
-0.00971421
-0.0110525
-0.0122194
-0.0129709
-0.0129911
0.000177612
-0.000107341
-0.000604823
-0.00128046
-0.00234386
-0.00318677
-0.00333639
-0.00333301
-0.00367796
-0.0042066
-0.00467994
-0.00519366
-0.00594511
-0.0069838
-0.00823235
-0.00958765
-0.0109359
-0.0121112
-0.0128761
-0.0129154
9.90292e-05
-0.000175958
-0.000743904
-0.00141206
-0.00239924
-0.00324929
-0.00346423
-0.00342559
-0.00366058
-0.00413584
-0.00462159
-0.00513477
-0.00584073
-0.0068223
-0.00803955
-0.00939113
-0.0107491
-0.011939
-0.0127236
-0.0127876
-2.15771e-06
-0.000281822
-0.000883456
-0.00156095
-0.00247442
-0.00330757
-0.00358084
-0.00352609
-0.00365432
-0.00405029
-0.00452435
-0.00503258
-0.00569662
-0.00661432
-0.00778216
-0.00911512
-0.0104778
-0.0116868
-0.0124994
-0.0125981
-0.000134675
-0.000400609
-0.00103063
-0.00172429
-0.0025717
-0.00336782
-0.0036868
-0.00363089
-0.00365985
-0.0039544
-0.00438759
-0.00487815
-0.00549897
-0.00634776
-0.00745079
-0.00874675
-0.0101039
-0.0113328
-0.0121824
-0.012322
-0.000296275
-0.000551991
-0.00118315
-0.00190092
-0.00269237
-0.00343881
-0.00378639
-0.00373809
-0.00367832
-0.00385344
-0.00421396
-0.0046651
-0.005234
-0.00600646
-0.0070286
-0.00826553
-0.00959908
-0.0108424
-0.0117297
-0.0119262
-0.000484651
-0.00071908
-0.00136211
-0.00209281
-0.00283474
-0.00352823
-0.00388602
-0.00384714
-0.00371342
-0.00375752
-0.00401116
-0.00439158
-0.00488839
-0.00556871
-0.00648793
-0.0076401
-0.00893045
-0.0101719
-0.0111031
-0.0113782
-0.000702775
-0.000917297
-0.00155667
-0.00229624
-0.00299676
-0.00364101
-0.00399204
-0.00395779
-0.00376917
-0.00368568
-0.00379893
-0.00406393
-0.00445133
-0.00500956
-0.00579579
-0.00682778
-0.00804279
-0.0092732
-0.0102585
-0.0106405
-0.000978715
-0.00115115
-0.0017585
-0.00247089
-0.00316821
-0.00377984
-0.00410859
-0.00406973
-0.00384195
-0.00365407
-0.00360438
-0.00369599
-0.00391319
-0.00428875
-0.00489455
-0.00575872
-0.00685684
-0.00805813
-0.00911348
-0.00965173
-0.0013176
-0.00155605
-0.0019731
-0.00259846
-0.00334869
-0.00393737
-0.00422692
-0.0041767
-0.00392381
-0.00366628
-0.00347304
-0.0033323
-0.00328198
-0.00336323
-0.00366452
-0.00426875
-0.00517268
-0.0063028
-0.0074603
-0.0082608
-0.00160855
-0.00175139
-0.00231243
-0.00299851
-0.00363282
-0.00410645
-0.00433838
-0.00428004
-0.00401134
-0.00372026
-0.00345888
-0.00314989
-0.00271382
-0.00224305
-0.00195181
-0.00201681
-0.00249981
-0.00332822
-0.00435239
-0.00534307
-0.00196825
-0.00211476
-0.00268327
-0.00336346
-0.00391523
-0.00427757
-0.00444044
-0.00438585
-0.0041077
-0.00372295
-0.00347974
-0.00333773
-0.00275802
-0.0016991
-0.000743044
-0.00020994
-2.82277e-05
6.28611e-05
0.00023702
0.000446965
-0.00243827
-0.00258501
-0.00306506
-0.00369133
-0.00416545
-0.00443218
-0.00452301
-0.00447599
-0.00428574
-0.00363707
-0.00254952
-0.00152119
-0.00068852
-1.00655e-05
0.000591952
0.00120525
0.00189028
0.00261249
0.00322825
0.00339802
-0.00296673
-0.00309116
-0.0035181
-0.00403587
-0.0043784
-0.00452123
-0.00455415
-0.0041233
-0.00327585
-0.00236701
-0.001573
-0.000926361
-0.000358855
0.000292209
0.00112788
0.00211974
0.00316875
0.0041278
0.00478703
0.00481887
-0.00361465
-0.00365384
-0.00397816
-0.00436289
-0.00454203
-0.00424405
-0.00372813
-0.00317835
-0.00263003
-0.00207447
-0.00148723
-0.000821125
-4.02942e-05
0.000886225
0.00195973
0.00313263
0.00430766
0.00533272
0.00597192
0.00589746
-0.00444412
-0.00451904
-0.00434343
-0.00413499
-0.00391554
-0.00361237
-0.00325905
-0.00290505
-0.00249323
-0.00195928
-0.00127565
-0.000447617
0.000511087
0.00158482
0.00275509
0.00398492
0.00518423
0.00619486
0.00678853
0.00663909
-0.00514578
-0.00508404
-0.00460955
-0.00404529
-0.00360054
-0.0032827
-0.00299998
-0.00268107
-0.0022559
-0.00166748
-0.000903663
1.14126e-05
0.00104759
0.00218228
0.003395
0.00463933
0.0058272
0.00681071
0.00736403
0.00715955
-0.00568175
-0.00551175
-0.00489979
-0.00414014
-0.00349868
-0.00304827
-0.00270817
-0.0023556
-0.00190234
-0.00129543
-0.000518009
0.000419199
0.00148769
0.002658
0.00389682
0.0051513
0.00633151
0.00729166
0.00780867
0.00755699
-0.006137
-0.00589035
-0.0051727
-0.00426031
-0.00344392
-0.00284553
-0.00241116
-0.0020178
-0.00155669
-0.000954712
-0.000180695
0.000761391
0.00184763
0.00304296
0.00430257
0.00556522
0.00673777
0.00767555
0.00815895
0.00786631
-0.00652537
-0.00622479
-0.0053965
-0.00436171
-0.00340853
-0.00268344
-0.00216278
-0.00172754
-0.00125538
-0.000657539
0.000110482
0.00105488
0.00215276
0.00336348
0.00463533
0.00590103
0.0070646
0.00798213
0.00843694
0.00811092
-0.00683421
-0.00648113
-0.00558566
-0.00445579
-0.00339515
-0.00256913
-0.00197295
-0.00149507
-0.00100481
-0.000403918
0.000360886
0.00130233
0.00240143
0.00361803
0.00489504
0.00616059
0.00731612
0.00821778
0.00865085
0.00829991
-0.00706457
-0.00668167
-0.00573406
-0.00454033
-0.00340683
-0.00250849
-0.00185171
-0.00132963
-0.000810075
-0.000190088
0.000585445
0.00153063
0.00262843
0.00384102
0.00511438
0.00637464
0.00752111
0.00840951
0.00882604
0.00845672
-0.0072084
-0.0068167
-0.00584579
-0.00461965
-0.00344872
-0.00251125
-0.00181775
-0.00126249
-0.000716238
-7.57424e-05
0.000718183
0.0016812
0.00279486
0.0040182
0.00529397
0.00654949
0.00768684
0.00856493
0.00897249
0.00859631
0.00868618
0.00351055
-0.00397794
-0.00907727
-0.0100578
-0.00880495
-0.00732709
-0.00628646
-0.00567657
-0.00535111
-0.00519655
-0.00515842
-0.0052101
-0.00532077
-0.00545642
-0.0055969
-0.00573788
-0.00587935
-0.00601878
-0.00615362
-0.00628391
-0.00641123
-0.00653621
-0.00665819
-0.00677643
-0.00689121
-0.00700406
-0.00711661
-0.00722943
-0.00734186
-0.00745309
-0.00756331
-0.00767346
-0.00778416
-0.00789527
-0.00800601
-0.00811563
-0.00822384
-0.00833068
-0.00843598
-0.00853946
-0.00864074
-0.00873961
-0.0088361
-0.00893046
-0.00902294
-0.00911372
-0.00920289
-0.00929053
-0.00937679
-0.00946208
-0.00954684
-0.00963118
-0.00971487
-0.00979759
-0.00987951
-0.00996096
-0.0100423
-0.0101234
-0.0102041
-0.0102842
-0.0103642
-0.0104442
-0.0105244
-0.0106044
-0.0106844
-0.0107643
-0.0108446
-0.0109249
-0.0110051
-0.0110851
-0.0111651
-0.0112453
-0.0113257
-0.0114062
-0.0114866
-0.011567
-0.0116475
-0.0117283
-0.0118092
-0.0118903
-0.0119713
-0.0120524
-0.0121336
-0.012215
-0.0122962
-0.0123776
-0.012459
-0.0125407
-0.0126224
-0.012704
-0.0127858
-0.0128679
-0.0129504
-0.013033
-0.0131159
-0.0131991
-0.0132829
-0.013367
-0.0134516
-0.0135364
-0.0136218
-0.0137074
-0.0137934
-0.0138797
-0.0139663
-0.0140533
-0.0141406
-0.0142283
-0.014316
-0.0144043
-0.0144927
-0.0145817
-0.0146708
-0.0147604
-0.01485
-0.0149402
-0.0150305
-0.0151213
-0.0152124
-0.0153038
-0.0153956
-0.0154877
-0.0155806
-0.0156735
-0.0157673
-0.015861
-0.0159556
-0.0160503
-0.0161458
-0.0162414
-0.0163375
-0.0164339
-0.0165306
-0.0166281
-0.0167256
-0.0168242
-0.0169224
-0.0170217
-0.0171207
-0.0172209
-0.0173211
-0.0174219
-0.017523
-0.0176244
-0.0177269
-0.0178292
-0.0179327
-0.0180357
-0.0181401
-0.0182443
-0.0183496
-0.0184548
-0.0185602
-0.0186669
-0.0187734
-0.0188815
-0.0189885
-0.0190976
-0.0192063
-0.0193164
-0.0194263
-0.0195366
-0.0196485
-0.0197594
-0.0198727
-0.0199842
-0.0200985
-0.0202119
-0.0203267
-0.0204417
-0.0205564
-0.0206738
-0.0207891
-0.0209077
-0.0210243
-0.0211436
-0.021263
-0.0213819
-0.021504
-0.0216229
-0.0217469
-0.0218667
-0.0219905
-0.0221134
-0.0222363
-0.0223625
-0.0224845
-0.0226122
-0.0227361
-0.022862
-0.0229893
-0.0231114
-0.0232413
-0.0233599
-0.0234869
-0.0236007
-0.0237157
-0.0238129
-0.0238999
0.00796153
0.00334016
-0.00389571
-0.0089449
-0.00998081
-0.00876835
-0.00730411
-0.00627021
-0.00566477
-0.00534208
-0.00518918
-0.00515209
-0.00520451
-0.00531576
-0.00545189
-0.00559276
-0.00573408
-0.00587586
-0.00601558
-0.00615067
-0.00628118
-0.00640871
-0.00653388
-0.00665604
-0.00677444
-0.00688936
-0.00700234
-0.007115
-0.00722792
-0.00734044
-0.00745175
-0.00756206
-0.00767227
-0.00778302
-0.00789419
-0.00800498
-0.00811465
-0.0082229
-0.00832978
-0.00843511
-0.00853864
-0.00863994
-0.00873884
-0.00883537
-0.00892976
-0.00902227
-0.00911306
-0.00920226
-0.00928992
-0.00937621
-0.00946151
-0.0095463
-0.00963065
-0.00971436
-0.0097971
-0.00987904
-0.0099605
-0.0100419
-0.010123
-0.0102037
-0.0102838
-0.0103638
-0.0104438
-0.0105241
-0.0106041
-0.010684
-0.010764
-0.0108442
-0.0109246
-0.0110048
-0.0110848
-0.0111648
-0.011245
-0.0113254
-0.0114059
-0.0114864
-0.0115668
-0.0116473
-0.0117281
-0.011809
-0.0118901
-0.0119711
-0.0120522
-0.0121334
-0.0122148
-0.012296
-0.0123774
-0.0124589
-0.0125405
-0.0126222
-0.0127039
-0.0127857
-0.0128677
-0.0129502
-0.0130328
-0.0131158
-0.013199
-0.0132828
-0.0133668
-0.0134514
-0.0135363
-0.0136217
-0.0137073
-0.0137933
-0.0138796
-0.0139662
-0.0140532
-0.0141405
-0.0142281
-0.0143159
-0.0144042
-0.0144926
-0.0145816
-0.0146707
-0.0147603
-0.0148499
-0.0149401
-0.0150304
-0.0151212
-0.0152123
-0.0153037
-0.0153955
-0.0154876
-0.0155805
-0.0156734
-0.0157672
-0.015861
-0.0159556
-0.0160502
-0.0161457
-0.0162413
-0.0163374
-0.0164338
-0.0165305
-0.016628
-0.0167255
-0.0168241
-0.0169223
-0.0170216
-0.0171207
-0.0172209
-0.0173211
-0.0174218
-0.0175229
-0.0176243
-0.0177269
-0.0178291
-0.0179326
-0.0180356
-0.0181401
-0.0182443
-0.0183495
-0.0184547
-0.0185602
-0.0186669
-0.0187734
-0.0188815
-0.0189884
-0.0190976
-0.0192063
-0.0193164
-0.0194263
-0.0195365
-0.0196484
-0.0197594
-0.0198726
-0.0199841
-0.0200985
-0.0202119
-0.0203266
-0.0204417
-0.0205563
-0.0206738
-0.0207891
-0.0209077
-0.0210243
-0.0211436
-0.021263
-0.0213819
-0.0215039
-0.0216228
-0.0217468
-0.0218667
-0.0219905
-0.0221134
-0.0222363
-0.0223625
-0.0224845
-0.0226122
-0.022736
-0.0228619
-0.0229893
-0.0231114
-0.0232412
-0.0233598
-0.0234869
-0.0236007
-0.0237157
-0.0238128
-0.0238998
0.0071982
0.00317152
-0.00371601
-0.00869293
-0.00983988
-0.00871198
-0.00727332
-0.0062469
-0.0056467
-0.00532836
-0.0051787
-0.00514388
-0.00519782
-0.00531009
-0.00544691
-0.00558829
-0.00573002
-0.00587216
-0.00601219
-0.00614755
-0.00627831
-0.00640605
-0.00653142
-0.00665377
-0.00677234
-0.00688742
-0.00700054
-0.00711334
-0.00722637
-0.00733899
-0.0074504
-0.00756078
-0.00767107
-0.00778189
-0.00789311
-0.00800396
-0.00811368
-0.00822198
-0.0083289
-0.00843427
-0.00853783
-0.00863917
-0.0087381
-0.00883466
-0.00892907
-0.00902161
-0.00911243
-0.00920164
-0.00928933
-0.00937564
-0.00946096
-0.00954577
-0.00963014
-0.00971386
-0.00979662
-0.00987858
-0.00996005
-0.0100414
-0.0101226
-0.0102033
-0.0102834
-0.0103634
-0.0104435
-0.0105237
-0.0106037
-0.0106837
-0.0107637
-0.0108439
-0.0109243
-0.0110045
-0.0110846
-0.0111646
-0.0112447
-0.0113252
-0.0114057
-0.0114861
-0.0115666
-0.011647
-0.0117278
-0.0118088
-0.0118899
-0.0119709
-0.012052
-0.0121332
-0.0122146
-0.0122958
-0.0123772
-0.0124587
-0.0125403
-0.012622
-0.0127037
-0.0127855
-0.0128676
-0.0129501
-0.0130327
-0.0131156
-0.0131988
-0.0132826
-0.0133667
-0.0134513
-0.0135361
-0.0136215
-0.0137072
-0.0137932
-0.0138794
-0.0139661
-0.0140531
-0.0141404
-0.014228
-0.0143158
-0.0144041
-0.0144925
-0.0145815
-0.0146706
-0.0147602
-0.0148498
-0.01494
-0.0150303
-0.0151211
-0.0152122
-0.0153036
-0.0153954
-0.0154875
-0.0155804
-0.0156734
-0.0157671
-0.0158609
-0.0159555
-0.0160501
-0.0161456
-0.0162412
-0.0163373
-0.0164337
-0.0165305
-0.0166279
-0.0167255
-0.016824
-0.0169223
-0.0170215
-0.0171206
-0.0172208
-0.017321
-0.0174218
-0.0175229
-0.0176243
-0.0177268
-0.017829
-0.0179326
-0.0180355
-0.01814
-0.0182442
-0.0183495
-0.0184547
-0.0185601
-0.0186668
-0.0187733
-0.0188815
-0.0189884
-0.0190975
-0.0192062
-0.0193163
-0.0194262
-0.0195365
-0.0196484
-0.0197593
-0.0198726
-0.0199841
-0.0200985
-0.0202118
-0.0203266
-0.0204417
-0.0205563
-0.0206737
-0.020789
-0.0209076
-0.0210242
-0.0211435
-0.021263
-0.0213818
-0.0215039
-0.0216228
-0.0217468
-0.0218667
-0.0219905
-0.0221134
-0.0222363
-0.0223625
-0.0224845
-0.0226122
-0.022736
-0.0228619
-0.0229893
-0.0231114
-0.0232412
-0.0233598
-0.0234868
-0.0236007
-0.0237157
-0.0238128
-0.0238998
0.00647001
0.00302308
-0.00346612
-0.00835663
-0.00964129
-0.00863044
-0.00722861
-0.00621148
-0.00561837
-0.00530701
-0.00516304
-0.00513236
-0.00518906
-0.00530299
-0.00544083
-0.00558291
-0.00572519
-0.00586777
-0.00600817
-0.00614386
-0.00627491
-0.0064029
-0.00652849
-0.00665104
-0.00676982
-0.00688511
-0.00699843
-0.00711141
-0.00722459
-0.00733734
-0.00744886
-0.00755936
-0.00766974
-0.00778066
-0.00789195
-0.00800286
-0.00811264
-0.008221
-0.00832797
-0.00843338
-0.00853698
-0.00863836
-0.00873732
-0.00883392
-0.00892836
-0.00902092
-0.00911177
-0.00920101
-0.00928872
-0.00937506
-0.0094604
-0.00954522
-0.00962962
-0.00971336
-0.00979613
-0.0098781
-0.00995959
-0.010041
-0.0101221
-0.0102028
-0.010283
-0.010363
-0.0104431
-0.0105233
-0.0106034
-0.0106834
-0.0107633
-0.0108436
-0.010924
-0.0110042
-0.0110843
-0.0111643
-0.0112445
-0.0113249
-0.0114054
-0.0114859
-0.0115663
-0.0116468
-0.0117276
-0.0118086
-0.0118896
-0.0119706
-0.0120518
-0.012133
-0.0122144
-0.0122956
-0.012377
-0.0124585
-0.0125402
-0.0126218
-0.0127035
-0.0127853
-0.0128674
-0.0129499
-0.0130325
-0.0131155
-0.0131987
-0.0132825
-0.0133666
-0.0134512
-0.013536
-0.0136214
-0.013707
-0.0137931
-0.0138793
-0.0139659
-0.014053
-0.0141403
-0.0142279
-0.0143157
-0.014404
-0.0144924
-0.0145814
-0.0146705
-0.0147601
-0.0148497
-0.0149399
-0.0150302
-0.0151211
-0.0152121
-0.0153035
-0.0153954
-0.0154874
-0.0155803
-0.0156733
-0.0157671
-0.0158608
-0.0159554
-0.0160501
-0.0161455
-0.0162412
-0.0163372
-0.0164337
-0.0165304
-0.0166279
-0.0167254
-0.016824
-0.0169222
-0.0170215
-0.0171206
-0.0172208
-0.0173209
-0.0174217
-0.0175228
-0.0176242
-0.0177267
-0.017829
-0.0179325
-0.0180355
-0.01814
-0.0182442
-0.0183494
-0.0184546
-0.0185601
-0.0186668
-0.0187733
-0.0188814
-0.0189883
-0.0190975
-0.0192062
-0.0193163
-0.0194262
-0.0195364
-0.0196483
-0.0197593
-0.0198725
-0.0199841
-0.0200984
-0.0202118
-0.0203266
-0.0204416
-0.0205563
-0.0206737
-0.020789
-0.0209076
-0.0210242
-0.0211435
-0.0212629
-0.0213818
-0.0215039
-0.0216228
-0.0217468
-0.0218667
-0.0219905
-0.0221133
-0.0222362
-0.0223625
-0.0224844
-0.0226122
-0.022736
-0.0228619
-0.0229892
-0.0231114
-0.0232412
-0.0233598
-0.0234868
-0.0236006
-0.0237156
-0.0238128
-0.0238998
0.00576839
0.00286254
-0.0031971
-0.00798842
-0.00941624
-0.00853674
-0.00717656
-0.00616707
-0.00558048
-0.00527746
-0.00514115
-0.00511638
-0.0051771
-0.00529349
-0.0054328
-0.0055759
-0.00571895
-0.00586211
-0.00600297
-0.00613907
-0.00627049
-0.00639878
-0.00652461
-0.00664739
-0.00676643
-0.006882
-0.0069956
-0.00710884
-0.00722223
-0.00733516
-0.00744686
-0.00755752
-0.00766807
-0.00777911
-0.00789052
-0.00800152
-0.00811138
-0.00821981
-0.00832685
-0.00843232
-0.00853597
-0.0086374
-0.00873641
-0.00883305
-0.00892754
-0.00902014
-0.00911101
-0.00920028
-0.00928803
-0.00937439
-0.00945976
-0.00954461
-0.00962902
-0.00971278
-0.00979558
-0.00987757
-0.00995908
-0.0100405
-0.0101217
-0.0102024
-0.0102825
-0.0103626
-0.0104427
-0.0105229
-0.010603
-0.010683
-0.010763
-0.0108432
-0.0109236
-0.0110039
-0.0110839
-0.011164
-0.0112442
-0.0113246
-0.0114051
-0.0114856
-0.011566
-0.0116465
-0.0117274
-0.0118083
-0.0118894
-0.0119704
-0.0120516
-0.0121328
-0.0122142
-0.0122954
-0.0123768
-0.0124583
-0.01254
-0.0126217
-0.0127033
-0.0127852
-0.0128672
-0.0129497
-0.0130323
-0.0131153
-0.0131985
-0.0132823
-0.0133664
-0.013451
-0.0135359
-0.0136213
-0.0137069
-0.0137929
-0.0138792
-0.0139658
-0.0140528
-0.0141401
-0.0142278
-0.0143156
-0.0144039