/*--------------------------------*- C++ -*----------------------------------*\
| =========                 |                                                 |
| \\      /  F ield         | OpenFOAM: The Open Source CFD Toolbox           |
|  \\    /   O peration     | Version:  v2012                                 |
|   \\  /    A nd           | Website:  www.openfoam.com                      |
|    \\/     M anipulation  |                                                 |
\*---------------------------------------------------------------------------*/
FoamFile
{
    version     2.0;
    format      ascii;
    class       volVectorField;
    location    "4.35";
    object      U;
}
// * * * * * * * * * * * * * * * * * * * * * * * * * * * * * * * * * * * * * //

dimensions      [0 1 -1 0 0 0 0];


internalField   nonuniform List<vector> 
17600
(
(0.824072 -0.000529978 0)
(1.17279 -0.00150781 0)
(0.838393 0.000996706 0)
(1.15881 0.000661072 0)
(0.864106 0.00287936 0)
(1.1396 0.000121652 0)
(0.875099 0.00331427 0)
(1.12021 -0.00301755 0)
(0.875628 0.00511499 0)
(1.10667 -0.00503255 0)
(0.868928 0.00571521 0)
(1.09869 -0.00405623 0)
(0.861421 0.00413894 0)
(1.09117 -0.00231943 0)
(0.85458 0.00294525 0)
(1.08652 -0.000798654 0)
(0.844549 0.00186472 0)
(1.08422 0.000461353 0)
(0.829705 0.00287466 0)
(1.0823 0.000463787 0)
(0.835333 -0.000597226 0)
(1.16104 -0.00142618 0)
(0.850345 0.000918341 0)
(1.14614 0.000656194 0)
(0.877868 0.00283498 0)
(1.12475 0.000237978 0)
(0.891247 0.00330259 0)
(1.10243 -0.00278975 0)
(0.893647 0.00503186 0)
(1.08438 -0.00467409 0)
(0.890548 0.0055553 0)
(1.0697 -0.00367533 0)
(0.891388 0.00400706 0)
(1.05275 -0.00201554 0)
(0.898698 0.00288385 0)
(1.03367 -0.000580535 0)
(0.911108 0.0020381 0)
(1.00806 0.000556562 0)
(0.929961 0.00415138 0)
(0.968608 -0.000211896 0)
(0.856946 -0.00065884 0)
(1.13819 -0.00135734 0)
(0.87398 0.000841054 0)
(1.1215 0.000615535 0)
(0.903665 0.00284393 0)
(1.09821 0.000290976 0)
(0.919719 0.00335556 0)
(1.07405 -0.00261302 0)
(0.924237 0.00504557 0)
(1.05338 -0.0044124 0)
(0.924963 0.00552345 0)
(1.03477 -0.00346915 0)
(0.932147 0.00405262 0)
(1.01427 -0.00195639 0)
(0.944196 0.00305417 0)
(0.995276 -0.000679939 0)
(0.956035 0.00246057 0)
(0.976929 0.000298159 0)
(0.963497 0.0046288 0)
(0.960921 0.000651678 0)
(0.885886 -0.00068782 0)
(1.10751 -0.00134663 0)
(0.904432 0.000824345 0)
(1.08966 0.000515357 0)
(0.934207 0.00291687 0)
(1.06741 0.000256532 0)
(0.95065 0.0034811 0)
(1.04545 -0.00253318 0)
(0.955003 0.0051616 0)
(1.02729 -0.00428573 0)
(0.956199 0.00564337 0)
(1.01153 -0.00343453 0)
(0.962855 0.00424472 0)
(0.996253 -0.00201729 0)
(0.970119 0.00327469 0)
(0.985754 -0.000759235 0)
(0.973864 0.00273379 0)
(0.977521 0.000255157 0)
(0.972469 0.00487728 0)
(0.970989 0.00167481 0)
(0.91731 -0.000684353 0)
(1.0748 -0.0013858 0)
(0.934817 0.000863199 0)
(1.05767 0.000371228 0)
(0.961246 0.00301472 0)
(1.04027 0.000177078 0)
(0.975201 0.00361969 0)
(1.02444 -0.00248567 0)
(0.977256 0.0052817 0)
(1.0121 -0.0041853 0)
(0.976626 0.00575669 0)
(1.00196 -0.00340116 0)
(0.98004 0.00438508 0)
(0.992903 -0.00201725 0)
(0.982469 0.00339279 0)
(0.987769 -0.000744576 0)
(0.982209 0.00287198 0)
(0.982779 0.000377016 0)
(0.978973 0.00503306 0)
(0.977291 0.00264202 0)
(0.946102 -0.000656773 0)
(1.0461 -0.00144703 0)
(0.959628 0.000930206 0)
(1.03169 0.000223943 0)
(0.980014 0.00309377 0)
(1.02123 9.54517e-05 0)
(0.990167 0.00371546 0)
(1.01267 -0.0024292 0)
(0.989831 0.00534669 0)
(1.00585 -0.00406799 0)
(0.987614 0.00579184 0)
(0.999993 -0.00332099 0)
(0.988756 0.00441562 0)
(0.994447 -0.00194436 0)
(0.989016 0.00340713 0)
(0.991194 -0.000666196 0)
(0.987643 0.00294168 0)
(0.986938 0.000569001 0)
(0.984179 0.00513349 0)
(0.981869 0.00354326 0)
(0.968696 -0.000619397 0)
(1.02511 -0.00150151 0)
(0.976666 0.00100158 0)
(1.01442 0.000107492 0)
(0.990392 0.00312873 0)
(1.01026 3.04415e-05 0)
(0.997305 0.0037498 0)
(1.00745 -0.00236214 0)
(0.995862 0.00535499 0)
(1.00424 -0.00394247 0)
(0.993225 0.00576815 0)
(1.0007 -0.00321473 0)
(0.993528 0.00437846 0)
(0.996732 -0.0018287 0)
(0.993177 0.00335787 0)
(0.994164 -0.000528174 0)
(0.99155 0.00294992 0)
(0.99031 0.000835984 0)
(0.988069 0.00516159 0)
(0.985753 0.00442564 0)
(0.983984 -0.000586362 0)
(1.0122 -0.00153208 0)
(0.986756 0.00106293 0)
(1.00505 3.26429e-05 0)
(0.995079 0.00312049 0)
(1.00489 -1.94424e-05 0)
(1.00006 0.00373351 0)
(1.00551 -0.00229595 0)
(0.998741 0.00532413 0)
(1.00431 -0.00381854 0)
(0.996482 0.00571244 0)
(1.00203 -0.00309732 0)
(0.996696 0.00431198 0)
(0.9989 -0.00169027 0)
(0.996294 0.00327489 0)
(0.996761 -0.000341072 0)
(0.99466 0.00290378 0)
(0.99326 0.00117889 0)
(0.991293 0.00512697 0)
(0.989155 0.00526351 0)
(0.992944 -0.000564852 0)
(1.00542 -0.00153776 0)
(0.992135 0.0011091 0)
(1.00101 -8.16813e-06 0)
(0.997069 0.00308561 0)
(1.00257 -6.12393e-05 0)
(1.0011 0.00368631 0)
(1.00479 -0.00223782 0)
(1.00047 0.00526686 0)
(1.00476 -0.00369696 0)
(0.998855 0.00563091 0)
(1.00337 -0.00296739 0)
(0.999213 0.00422034 0)
(1.00085 -0.00153251 0)
(0.998909 0.00316483 0)
(0.999079 -0.000117261 0)
(0.997357 0.00281328 0)
(0.995903 0.00158182 0)
(0.994175 0.00505462 0)
(0.992214 0.00602142 0)
(0.997529 -0.000554032 0)
(1.00223 -0.0015278 0)
(0.994928 0.00114085 0)
(0.999766 -2.89459e-05 0)
(0.998236 0.00304077 0)
(1.00169 -9.88529e-05 0)
(1.00175 0.00362408 0)
(1.00444 -0.00218868 0)
(1.00183 0.00518945 0)
(1.00516 -0.00357637 0)
(1.00082 0.00552215 0)
(1.00451 -0.00282147 0)
(1.00132 0.00409416 0)
(1.00252 -0.00134672 0)
(1.00113 0.00301522 0)
(1.00108 0.000139009 0)
(0.999678 0.00268628 0)
(0.998208 0.00202216 0)
(0.996703 0.00497619 0)
(0.994919 0.00667411 0)
(0.99962 -0.000548926 0)
(1.00073 -0.00151265 0)
(0.996473 0.00116061 0)
(0.999682 -4.19036e-05 0)
(0.999265 0.00299506 0)
(1.00143 -0.00013272 0)
(1.00237 0.00355592 0)
(1.00421 -0.00214581 0)
(1.00294 0.00509499 0)
(1.00542 -0.00345472 0)
(1.00239 0.00538564 0)
(1.00537 -0.00265809 0)
(1.003 0.00392889 0)
(1.00384 -0.00112733 0)
(1.00289 0.0028206 0)
(1.00268 0.000424213 0)
(1.00153 0.00252826 0)
(1.00008 0.00247234 0)
(0.998767 0.00492595 0)
(0.997167 0.00720354 0)
(1.00051 -0.000544828 0)
(0.999936 -0.00149876 0)
(0.9974 0.00117056 0)
(0.999934 -5.46413e-05 0)
(1.00021 0.00295077 0)
(1.00144 -0.000162112 0)
(1.00292 0.00348572 0)
(1.00405 -0.00210501 0)
(1.00376 0.00498503 0)
(1.00555 -0.00332796 0)
(1.00353 0.00522003 0)
(1.00596 -0.00247364 0)
(1.0042 0.0037246 0)
(1.00477 -0.000877213 0)
(1.00415 0.00258761 0)
(1.00383 0.000739943 0)
(1.00288 0.00235472 0)
(1.00147 0.00290196 0)
(1.00032 0.00493471 0)
(0.9989 0.00760233 0)
(1.00089 -0.000539248 0)
(0.999452 -0.0014883 0)
(0.99797 0.00117271 0)
(1.00021 -7.05375e-05 0)
(1.00096 0.00290681 0)
(1.00155 -0.000186555 0)
(1.00334 0.00341431 0)
(1.00396 -0.0020624 0)
(1.00429 0.00486078 0)
(1.0056 -0.00319174 0)
(1.00425 0.00502443 0)
(1.00631 -0.00226434 0)
(1.00496 0.00348158 0)
(1.00535 -0.000598235 0)
(1.00497 0.0023224 0)
(1.00457 0.00107828 0)
(1.00378 0.00219586 0)
(1.00242 0.00328452 0)
(1.0014 0.00502097 0)
(1.00016 0.00787992 0)
(1.00106 -0.000531615 0)
(0.99915 -0.00148103 0)
(0.998312 0.00116906 0)
(1.00042 -9.02328e-05 0)
(1.00149 0.00286137 0)
(1.00168 -0.000206267 0)
(1.00361 0.00334103 0)
(1.00393 -0.00201499 0)
(1.00458 0.00472266 0)
(1.00562 -0.00304248 0)
(1.00465 0.00480045 0)
(1.00648 -0.0020304 0)
(1.0054 0.00320349 0)
(1.00567 -0.000295913 0)
(1.00545 0.00203821 0)
(1.005 0.00141603 0)
(1.00434 0.0020794 0)
(1.00304 0.00359854 0)
(1.00213 0.00518543 0)
(1.00105 0.00806187 0)
(1.00115 -0.000522298 0)
(0.998972 -0.00147588 0)
(0.998514 0.00116133 0)
(1.00056 -0.000113056 0)
(1.00182 0.00281302 0)
(1.00179 -0.000221624 0)
(1.00376 0.00326393 0)
(1.00392 -0.00195956 0)
(1.00471 0.00456887 0)
(1.00562 -0.00287607 0)
(1.00486 0.00454817 0)
(1.00654 -0.00177108 0)
(1.00564 0.0028965 0)
(1.00582 1.04181e-05 0)
(1.00574 0.00175125 0)
(1.00524 0.00173176 0)
(1.00468 0.002025 0)
(1.00345 0.00383653 0)
(1.00264 0.00541215 0)
(1.0017 0.00817991 0)
(1.0012 -0.000511942 0)
(0.998873 -0.00147156 0)
(0.99864 0.00115077 0)
(1.00065 -0.000138157 0)
(1.00202 0.00276039 0)
(1.00187 -0.000232181 0)
(1.00383 0.00318015 0)
(1.00394 -0.00189341 0)
(1.00475 0.00439789 0)
(1.00562 -0.00269016 0)
(1.00496 0.00426739 0)
(1.00654 -0.0014864 0)
(1.00579 0.00256481 0)
(1.00586 0.000328442 0)
(1.00591 0.00147942 0)
(1.00536 0.00200541 0)
(1.00491 0.00204377 0)
(1.00375 0.00400902 0)
(1.00302 0.00567602 0)
(1.0022 0.00826612 0)
(1.00123 -0.000501255 0)
(0.998822 -0.00146702 0)
(0.998728 0.00113844 0)
(1.00071 -0.000164285 0)
(1.00214 0.00270185 0)
(1.00191 -0.000237248 0)
(1.00386 0.00308731 0)
(1.00395 -0.00181532 0)
(1.00476 0.00420846 0)
(1.0056 -0.00248366 0)
(1.00502 0.00396038 0)
(1.0065 -0.00118315 0)
(1.00588 0.00222076 0)
(1.00586 0.00065027 0)
(1.00603 0.00124026 0)
(1.00544 0.00221903 0)
(1.00507 0.00213688 0)
(1.004 0.00413111 0)
(1.00333 0.00594721 0)
(1.00262 0.00834772 0)
(1.00125 -0.000490359 0)
(0.998797 -0.00146242 0)
(0.998801 0.00112384 0)
(1.00075 -0.000190243 0)
(1.00221 0.00263654 0)
(1.00193 -0.000236477 0)
(1.00386 0.00298414 0)
(1.00397 -0.0017244 0)
(1.00476 0.00399959 0)
(1.00558 -0.00225752 0)
(1.00507 0.00363106 0)
(1.00645 -0.000868047 0)
(1.00596 0.00187414 0)
(1.00583 0.000948175 0)
(1.00612 0.00105518 0)
(1.0055 0.00236847 0)
(1.0052 0.00229705 0)
(1.00423 0.00421882 0)
(1.00362 0.00619871 0)
(1.00299 0.0084401 0)
(1.00128 -0.000479637 0)
(0.998787 -0.00145671 0)
(0.998869 0.00110597 0)
(1.00077 -0.000214095 0)
(1.00227 0.00256331 0)
(1.00194 -0.00022789 0)
(1.00386 0.00286814 0)
(1.00398 -0.00161832 0)
(1.00475 0.00377076 0)
(1.00556 -0.00201404 0)
(1.00511 0.00328448 0)
(1.00638 -0.000549871 0)
(1.00604 0.00153665 0)
(1.00579 0.00121106 0)
(1.0062 0.000936857 0)
(1.00556 0.0024597 0)
(1.00532 0.00251104 0)
(1.00445 0.00429239 0)
(1.00389 0.00641384 0)
(1.00333 0.00854573 0)
(1.00129 -0.00046981 0)
(0.998786 -0.00144789 0)
(0.998933 0.00108476 0)
(1.00079 -0.000235594 0)
(1.00231 0.00247947 0)
(1.00194 -0.000209592 0)
(1.00384 0.00273638 0)
(1.00398 -0.00149518 0)
(1.00474 0.00352132 0)
(1.00552 -0.00175492 0)
(1.00516 0.00292617 0)
(1.0063 -0.000241653 0)
(1.00611 0.00122843 0)
(1.00575 0.00141908 0)
(1.00627 0.000881023 0)
(1.00563 0.00249948 0)
(1.00543 0.00275979 0)
(1.00467 0.00437557 0)
(1.00418 0.00658883 0)
(1.00365 0.00866237 0)
(1.0013 -0.000461133 0)
(0.998793 -0.00143537 0)
(0.998996 0.00105876 0)
(1.00081 -0.000253646 0)
(1.00234 0.00238357 0)
(1.00193 -0.000180399 0)
(1.00383 0.0025882 0)
(1.00398 -0.00135662 0)
(1.00473 0.00325477 0)
(1.00549 -0.00148753 0)
(1.0052 0.00256739 0)
(1.00622 3.92201e-05 0)
(1.00618 0.000957816 0)
(1.00572 0.00156692 0)
(1.00632 0.000883191 0)
(1.00572 0.00249901 0)
(1.00555 0.00301895 0)
(1.00489 0.00448848 0)
(1.00447 0.00673126 0)
(1.00397 0.00878885 0)
(1.00131 -0.000453293 0)
(0.998808 -0.00141896 0)
(0.999053 0.00102584 0)
(1.00083 -0.000265317 0)
(1.00237 0.00227346 0)
(1.00193 -0.000139532 0)
(1.00381 0.00242441 0)
(1.00399 -0.0012072 0)
(1.00472 0.00297884 0)
(1.00545 -0.00122387 0)
(1.00525 0.00222128 0)
(1.00614 0.000293341 0)
(1.00624 0.000729775 0)
(1.00571 0.00165766 0)
(1.00637 0.000932652 0)
(1.00582 0.00247369 0)
(1.00567 0.00326332 0)
(1.00512 0.00464087 0)
(1.00478 0.00685578 0)
(1.00428 0.00892618 0)
(1.00131 -0.000446427 0)
(0.998833 -0.00139674 0)
(0.999103 0.000983125 0)
(1.00086 -0.000269712 0)
(1.00239 0.00214858 0)
(1.00193 -9.0605e-05 0)
(1.00378 0.00224611 0)
(1.00399 -0.00105054 0)
(1.00471 0.00269873 0)
(1.00541 -0.000969006 0)
(1.00529 0.0018932 0)
(1.00607 0.000517664 0)
(1.0063 0.000542836 0)
(1.00571 0.00169702 0)
(1.00642 0.00100948 0)
(1.00595 0.00243954 0)
(1.00582 0.00347228 0)
(1.00535 0.00482596 0)
(1.00509 0.00697031 0)
(1.00459 0.00907158 0)
(1.00129 -0.000442699 0)
(0.99887 -0.00136442 0)
(0.999144 0.00092714 0)
(1.0009 -0.000263619 0)
(1.0024 0.00200615 0)
(1.00193 -2.72964e-05 0)
(1.00375 0.0020531 0)
(1.004 -0.000887024 0)
(1.0047 0.00241453 0)
(1.00538 -0.000724934 0)
(1.00534 0.0015882 0)
(1.00601 0.000695181 0)
(1.00634 0.000398395 0)
(1.00572 0.00169062 0)
(1.00645 0.00109855 0)
(1.00609 0.00239969 0)
(1.00597 0.00363186 0)
(1.00559 0.00502039 0)
(1.00541 0.00707717 0)
(1.00491 0.00922724 0)
(1.00125 -0.000440067 0)
(0.998921 -0.00132472 0)
(0.999172 0.000862277 0)
(1.00095 -0.000252413 0)
(1.00241 0.00185287 0)
(1.00195 4.19689e-05 0)
(1.00371 0.0018607 0)
(1.00402 -0.000735125 0)
(1.00468 0.00215402 0)
(1.00535 -0.000526291 0)
(1.00537 0.00133865 0)
(1.00595 0.000803162 0)
(1.00637 0.000322101 0)
(1.00575 0.00162456 0)
(1.00648 0.00121682 0)
(1.00624 0.00232397 0)
(1.00615 0.00373104 0)
(1.00584 0.0051291 0)
(1.00574 0.00715673 0)
(1.00524 0.00937585 0)
(1.0012 -0.000439179 0)
(0.998985 -0.00127536 0)
(0.999188 0.000783072 0)
(1.00101 -0.00023107 0)
(1.0024 0.00168423 0)
(1.00197 0.000117405 0)
(1.00366 0.00166566 0)
(1.00404 -0.000593815 0)
(1.00465 0.00191519 0)
(1.00532 -0.000360546 0)
(1.0054 0.00112134 0)
(1.0059 0.000873544 0)
(1.00639 0.000269098 0)
(1.0058 0.00154143 0)
(1.00651 0.00132803 0)
(1.0064 0.00224775 0)
(1.00634 0.00374144 0)
(1.00611 0.00515504 0)
(1.00609 0.0071064 0)
(1.00561 0.00932818 0)
(1.00114 -0.000441734 0)
(0.999059 -0.00121527 0)
(0.999193 0.000689556 0)
(1.00107 -0.000204075 0)
(1.00239 0.00150606 0)
(1.00199 0.000190425 0)
(1.00361 0.00147875 0)
(1.00406 -0.000470451 0)
(1.00462 0.00169725 0)
(1.00529 -0.000215377 0)
(1.00541 0.000920001 0)
(1.00586 0.00092612 0)
(1.0064 0.00021367 0)
(1.00586 0.00145876 0)
(1.00653 0.00142373 0)
(1.00656 0.00221675 0)
(1.00654 0.00377011 0)
(1.00638 0.00524211 0)
(1.00644 0.00709318 0)
(1.00601 0.00931368 0)
(1.00107 -0.000444416 0)
(0.99914 -0.00114559 0)
(0.99919 0.000584406 0)
(1.00115 -0.000177412 0)
(1.00237 0.00132627 0)
(1.00203 0.000249632 0)
(1.00355 0.00131518 0)
(1.00409 -0.00037926 0)
(1.00459 0.00152017 0)
(1.00527 -0.000116694 0)
(1.00542 0.000760468 0)
(1.00582 0.00094476 0)
(1.00639 0.000207951 0)
(1.00593 0.0013547 0)
(1.00656 0.00157356 0)
(1.00674 0.00228303 0)
(1.00675 0.00388892 0)
(1.00666 0.00540726 0)
(1.00679 0.00718154 0)
(1.00643 0.00932409 0)
(1.00099 -0.000450627 0)
(0.999221 -0.00106219 0)
(0.999184 0.000469297 0)
(1.00122 -0.000150805 0)
(1.00235 0.00114477 0)
(1.00206 0.000296442 0)
(1.00348 0.00116933 0)
(1.00411 -0.000306317 0)
(1.00455 0.00135044 0)
(1.00524 -1.82318e-05 0)
(1.00543 0.00060405 0)
(1.00579 0.000968127 0)
(1.00638 0.000281891 0)
(1.00602 0.00132786 0)
(1.0066 0.00179117 0)
(1.00691 0.00246787 0)
(1.00699 0.00403874 0)
(1.00696 0.00560728 0)
(1.00714 0.0072907 0)
(1.00686 0.00932554 0)
(1.00092 -0.000458647 0)
(0.999297 -0.000971898 0)
(0.999178 0.000354691 0)
(1.00128 -0.000135235 0)
(1.00233 0.000979768 0)
(1.00208 0.000311833 0)
(1.00342 0.00105041 0)
(1.00413 -0.000257973 0)
(1.00451 0.00119505 0)
(1.0052 7.50434e-05 0)
(1.00543 0.000466429 0)
(1.00577 0.00101365 0)
(1.00637 0.000435876 0)
(1.00612 0.0013911 0)
(1.00665 0.00201047 0)
(1.00708 0.00268154 0)
(1.00723 0.0041824 0)
(1.00726 0.00577769 0)
(1.00748 0.00736837 0)
(1.00729 0.00926042 0)
(1.00085 -0.000465569 0)
(0.999365 -0.000879887 0)
(0.999174 0.000238719 0)
(1.00134 -0.000131354 0)
(1.00231 0.000829521 0)
(1.00211 0.000304372 0)
(1.00335 0.000945834 0)
(1.00414 -0.000222412 0)
(1.00447 0.00105177 0)
(1.00516 0.000181862 0)
(1.00544 0.000415815 0)
(1.00577 0.00108572 0)
(1.00635 0.000639383 0)
(1.00622 0.00147886 0)
(1.00672 0.00219471 0)
(1.00726 0.00286327 0)
(1.00748 0.00428011 0)
(1.00756 0.00587631 0)
(1.00782 0.00739781 0)
(1.0077 0.00913188 0)
(1.00079 -0.000473504 0)
(0.999421 -0.000786892 0)
(0.999173 0.000135399 0)
(1.00139 -0.000155573 0)
(1.0023 0.000698269 0)
(1.00212 0.00027067 0)
(1.00329 0.000851205 0)
(1.00414 -0.000176107 0)
(1.00445 0.000909732 0)
(1.00512 0.000335989 0)
(1.00545 0.000451111 0)
(1.00577 0.00116711 0)
(1.00635 0.000849758 0)
(1.00631 0.00157406 0)
(1.0068 0.00234297 0)
(1.00742 0.00301084 0)
(1.00773 0.00433286 0)
(1.00787 0.00592567 0)
(1.00815 0.00740592 0)
(1.0081 0.00899465 0)
(1.00073 -0.000479774 0)
(0.999465 -0.000696605 0)
(0.999174 4.93599e-05 0)
(1.00142 -0.000214398 0)
(1.00229 0.000589859 0)
(1.00213 0.000211986 0)
(1.00323 0.000759306 0)
(1.00413 -0.000115814 0)
(1.00443 0.000811353 0)
(1.00508 0.000507516 0)
(1.00545 0.000531784 0)
(1.00578 0.00123349 0)
(1.00634 0.00102884 0)
(1.00641 0.00165879 0)
(1.00689 0.00245548 0)
(1.00759 0.00313492 0)
(1.00799 0.00436731 0)
(1.00818 0.00595049 0)
(1.00848 0.00740592 0)
(1.00848 0.00886839 0)
(1.00069 -0.000483075 0)
(0.999498 -0.000618214 0)
(0.999174 -4.26362e-06 0)
(1.00145 -0.000309542 0)
(1.00228 0.000479846 0)
(1.00213 0.000150099 0)
(1.00319 0.000660498 0)
(1.00411 -1.96108e-05 0)
(1.00442 0.000786435 0)
(1.00504 0.000675303 0)
(1.00545 0.000643939 0)
(1.00579 0.00128322 0)
(1.00634 0.00118549 0)
(1.0065 0.0017464 0)
(1.00699 0.00256215 0)
(1.00775 0.00325662 0)
(1.00825 0.00440443 0)
(1.00851 0.00595082 0)
(1.0088 0.00738241 0)
(1.00884 0.00873929 0)
(1.00065 -0.000483836 0)
(0.999523 -0.000555211 0)
(0.999171 -2.20497e-05 0)
(1.00147 -0.000431893 0)
(1.00228 0.000370363 0)
(1.00213 8.68336e-05 0)
(1.00315 0.000571106 0)
(1.0041 0.000127376 0)
(1.00442 0.00081449 0)
(1.00501 0.000824455 0)
(1.00545 0.000770396 0)
(1.00579 0.00133111 0)
(1.00634 0.0013254 0)
(1.00659 0.0018425 0)
(1.0071 0.00267289 0)
(1.00791 0.00338053 0)
(1.00851 0.00444144 0)
(1.00884 0.0059191 0)
(1.00913 0.00732273 0)
(1.00918 0.00859852 0)
(1.00061 -0.000477407 0)
(0.999543 -0.000511246 0)
(0.999161 -5.37945e-06 0)
(1.00148 -0.000566703 0)
(1.00228 0.000264476 0)
(1.00212 5.39905e-05 0)
(1.00312 0.000517534 0)
(1.00408 0.000282941 0)
(1.00442 0.000857693 0)
(1.00497 0.000938891 0)
(1.00545 0.000888647 0)
(1.0058 0.00138333 0)
(1.00635 0.00144305 0)
(1.00668 0.00193266 0)
(1.00721 0.00277432 0)
(1.00806 0.00349853 0)
(1.00877 0.00447062 0)
(1.00916 0.00585282 0)
(1.00947 0.00722122 0)
(1.00951 0.00843988 0)
(1.00057 -0.000467623 0)
(0.99956 -0.000485989 0)
(0.999146 4.30084e-05 0)
(1.00149 -0.000686597 0)
(1.00229 0.000144627 0)
(1.0021 7.53994e-05 0)
(1.0031 0.000484438 0)
(1.00407 0.000417123 0)
(1.00441 0.000901179 0)
(1.00493 0.00101226 0)
(1.00544 0.000990966 0)
(1.0058 0.00144474 0)
(1.00636 0.00155289 0)
(1.00677 0.00201431 0)
(1.00734 0.00286108 0)
(1.00822 0.00361019 0)
(1.00901 0.00450041 0)
(1.00949 0.00576598 0)
(1.0098 0.00708187 0)
(1.00983 0.0082578 0)
(1.00054 -0.000452178 0)
(0.999579 -0.000490107 0)
(0.999126 0.000113504 0)
(1.00148 -0.000769222 0)
(1.00231 3.85657e-05 0)
(1.00209 0.000119183 0)
(1.00308 0.000452836 0)
(1.00406 0.000524443 0)
(1.0044 0.000953349 0)
(1.0049 0.00107085 0)
(1.00543 0.00108766 0)
(1.00581 0.00152329 0)
(1.00638 0.00167491 0)
(1.00686 0.00209502 0)
(1.00748 0.00292881 0)
(1.00838 0.00370977 0)
(1.00924 0.00453805 0)
(1.0098 0.0056776 0)
(1.01014 0.00691634 0)
(1.01015 0.00804981 0)
(1.0005 -0.000429495 0)
(0.9996 -0.000521573 0)
(0.999103 0.000204715 0)
(1.00146 -0.000808921 0)
(1.00233 -6.17786e-05 0)
(1.00209 0.00017572 0)
(1.00306 0.000433303 0)
(1.00405 0.000608392 0)
(1.00439 0.00102251 0)
(1.00487 0.00113404 0)
(1.00542 0.00117718 0)
(1.00582 0.00161113 0)
(1.00639 0.00180427 0)
(1.00695 0.00217641 0)
(1.00762 0.00297044 0)
(1.00854 0.00378446 0)
(1.00946 0.00457903 0)
(1.0101 0.0056011 0)
(1.01048 0.00674178 0)
(1.01047 0.00782126 0)
(1.00047 -0.000400812 0)
(0.999627 -0.00057535 0)
(0.999081 0.000300536 0)
(1.00143 -0.00080594 0)
(1.00235 -0.000168004 0)
(1.00208 0.000245011 0)
(1.00305 0.000438774 0)
(1.00405 0.000674334 0)
(1.00438 0.00110587 0)
(1.00484 0.00120742 0)
(1.00542 0.00125215 0)
(1.00584 0.00169308 0)
(1.00641 0.00192836 0)
(1.00704 0.00225819 0)
(1.00778 0.00299041 0)
(1.00871 0.00382689 0)
(1.00968 0.00461132 0)
(1.01039 0.00553643 0)
(1.0108 0.00656817 0)
(1.01079 0.00757644 0)
(1.00043 -0.000365852 0)
(0.99966 -0.000647987 0)
(0.999064 0.000387002 0)
(1.0014 -0.000758835 0)
(1.00238 -0.00026529 0)
(1.00209 0.000324971 0)
(1.00303 0.000471689 0)
(1.00406 0.000723172 0)
(1.00438 0.00119204 0)
(1.0048 0.001293 0)
(1.00542 0.00131838 0)
(1.00586 0.00176617 0)
(1.00643 0.0020521 0)
(1.00712 0.0023497 0)
(1.00793 0.00300388 0)
(1.0089 0.00383706 0)
(1.00989 0.00462062 0)
(1.01066 0.00547154 0)
(1.01111 0.00639458 0)
(1.0111 0.00731671 0)
(1.0004 -0.000330454 0)
(0.9997 -0.000725657 0)
(0.999055 0.00045578 0)
(1.00135 -0.000678109 0)
(1.00242 -0.000344507 0)
(1.0021 0.000414753 0)
(1.00302 0.000535064 0)
(1.00407 0.000756337 0)
(1.00438 0.00126971 0)
(1.00477 0.00138758 0)
(1.00542 0.00138068 0)
(1.0059 0.00182232 0)
(1.00646 0.0021716 0)
(1.00719 0.00245337 0)
(1.00809 0.00301874 0)
(1.0091 0.00381736 0)
(1.01011 0.00459768 0)
(1.01091 0.0053955 0)
(1.0114 0.00621994 0)
(1.0114 0.00704777 0)
(1.00036 -0.000292651 0)
(0.999746 -0.000812776 0)
(0.999057 0.000494933 0)
(1.0013 -0.000579006 0)
(1.00246 -0.000383724 0)
(1.00213 0.000526263 0)
(1.003 0.000629023 0)
(1.00408 0.000780613 0)
(1.00439 0.00133449 0)
(1.00474 0.00149501 0)
(1.00542 0.00145022 0)
(1.00595 0.00186051 0)
(1.0065 0.0022764 0)
(1.00726 0.00256549 0)
(1.00823 0.00304032 0)
(1.0093 0.00377542 0)
(1.01033 0.00454233 0)
(1.01116 0.00530396 0)
(1.01168 0.00604688 0)
(1.01168 0.00678044 0)
(1.00032 -0.000249324 0)
(0.999797 -0.000900475 0)
(0.999072 0.000487193 0)
(1.00124 -0.00047849 0)
(1.00251 -0.000350831 0)
(1.00217 0.000686668 0)
(1.00298 0.000766702 0)
(1.0041 0.000803657 0)
(1.00441 0.00137347 0)
(1.00471 0.00159982 0)
(1.00542 0.00152464 0)
(1.006 0.00187559 0)
(1.00655 0.00234777 0)
(1.00732 0.0026702 0)
(1.00836 0.00306631 0)
(1.00949 0.00371461 0)
(1.01056 0.00445023 0)
(1.0114 0.00518482 0)
(1.01194 0.00586629 0)
(1.01195 0.00651423 0)
(1.00028 -0.000213734 0)
(0.999852 -0.000993433 0)
(0.999101 0.000418539 0)
(1.00119 -0.000351473 0)
(1.00257 -0.00025981 0)
(1.00222 0.00087636 0)
(1.00295 0.000958487 0)
(1.0041 0.00086209 0)
(1.00444 0.00141253 0)
(1.00468 0.0017197 0)
(1.00541 0.00162863 0)
(1.00606 0.00189382 0)
(1.00662 0.00239415 0)
(1.00739 0.0027661 0)
(1.00848 0.0031062 0)
(1.00969 0.00365277 0)
(1.01079 0.00433124 0)
(1.01165 0.00503595 0)
(1.01218 0.00567262 0)
(1.01219 0.00624931 0)
(1.00025 -0.000154018 0)
(0.999906 -0.00112445 0)
(0.999149 0.000353791 0)
(1.00117 -0.000148921 0)
(1.00265 -0.000190391 0)
(1.00229 0.00100088 0)
(1.00292 0.00114578 0)
(1.00411 0.000936461 0)
(1.00449 0.00144191 0)
(1.00467 0.00184187 0)
(1.00539 0.00176325 0)
(1.00612 0.00193421 0)
(1.00671 0.00242635 0)
(1.00747 0.00285239 0)
(1.00859 0.00316829 0)
(1.00986 0.00361567 0)
(1.01102 0.00421292 0)
(1.0119 0.00487502 0)
(1.01243 0.0054763 0)
(1.01243 0.0059977 0)
(1.00021 -7.26562e-05 0)
(0.999961 -0.00114301 0)
(0.999227 0.000331668 0)
(1.00115 7.89028e-06 0)
(1.00273 -0.000182477 0)
(1.00238 0.00103915 0)
(1.00289 0.00132452 0)
(1.00411 0.00102704 0)
(1.00455 0.00144986 0)
(1.00468 0.00193199 0)
(1.00537 0.00189007 0)
(1.00617 0.00197009 0)
(1.00682 0.00241085 0)
(1.00756 0.00287738 0)
(1.00869 0.00319618 0)
(1.01002 0.00356195 0)
(1.01124 0.00406377 0)
(1.01215 0.00466639 0)
(1.01267 0.00523429 0)
(1.01265 0.00571685 0)
(1.00018 -0.0001036 0)
(1.00001 -0.000972717 0)
(0.999306 0.000423251 0)
(1.00112 0.000127307 0)
(1.0028 -0.000191243 0)
(1.00249 0.00100562 0)
(1.00286 0.00145487 0)
(1.00408 0.0011074 0)
(1.0046 0.00141976 0)
(1.0047 0.00197304 0)
(1.00533 0.00200592 0)
(1.0062 0.00201884 0)
(1.00692 0.0023811 0)
(1.00766 0.00286726 0)
(1.00878 0.00320778 0)
(1.01015 0.00351628 0)
(1.01144 0.00391962 0)
(1.01239 0.00444271 0)
(1.01291 0.00496615 0)
(1.01286 0.00541503 0)
(1.00014 -2.07759e-05 0)
(1.00008 -0.00100577 0)
(0.999384 0.000402312 0)
(1.00107 0.000345572 0)
(1.00284 -0.00012271 0)
(1.0026 0.0010157 0)
(1.00283 0.00164107 0)
(1.00403 0.00128813 0)
(1.00465 0.00146318 0)
(1.00473 0.0020418 0)
(1.0053 0.00216005 0)
(1.00621 0.00211546 0)
(1.007 0.00237122 0)
(1.00777 0.00283935 0)
(1.00887 0.00320337 0)
(1.01025 0.00347685 0)
(1.01159 0.00379173 0)
(1.01259 0.00422447 0)
(1.01312 0.00469072 0)
(1.01305 0.00510575 0)
(1.00012 6.41029e-05 0)
(1.00012 -0.00107276 0)
(0.999507 0.00036806 0)
(1.00105 0.000623865 0)
(1.0029 1.23688e-05 0)
(1.00275 0.00103809 0)
(1.00285 0.00182247 0)
(1.00398 0.00150149 0)
(1.00469 0.00153008 0)
(1.00479 0.00209167 0)
(1.00528 0.00229995 0)
(1.0062 0.00222638 0)
(1.00708 0.00237269 0)
(1.00789 0.00278829 0)
(1.00896 0.00316728 0)
(1.01034 0.00342489 0)
(1.01173 0.0036686 0)
(1.01278 0.00400984 0)
(1.01334 0.00440635 0)
(1.01324 0.004781 0)
(1.00009 5.8489e-05 0)
(1.00019 -0.000886196 0)
(0.999646 0.000434871 0)
(1.00103 0.000805772 0)
(1.00292 0.00013364 0)
(1.00289 0.00100009 0)
(1.00287 0.00190725 0)
(1.00391 0.00167493 0)
(1.00472 0.0015771 0)
(1.00485 0.00209341 0)
(1.00527 0.0023931 0)
(1.00617 0.00233122 0)
(1.00713 0.00238374 0)
(1.008 0.00271931 0)
(1.00906 0.00308736 0)
(1.01042 0.00333777 0)
(1.01183 0.00352704 0)
(1.01294 0.0037818 0)
(1.01352 0.00409877 0)
(1.01342 0.00442272 0)
(1.00007 0.000124504 0)
(1.00023 -0.000705108 0)
(0.999772 0.000437019 0)
(1.00101 0.000938689 0)
(1.00292 0.000287976 0)
(1.00303 0.000985613 0)
(1.00291 0.00198819 0)
(1.00384 0.0018803 0)
(1.00471 0.00167231 0)
(1.00491 0.00209011 0)
(1.00526 0.00244765 0)
(1.00612 0.00242341 0)
(1.00714 0.00239278 0)
(1.00808 0.00262776 0)
(1.00915 0.00295095 0)
(1.01048 0.00319512 0)
(1.01189 0.00335031 0)
(1.01304 0.00353649 0)
(1.01367 0.00377819 0)
(1.01357 0.00404842 0)
(1.00004 0.000153236 0)
(1.00027 -0.000576434 0)
(0.999902 0.000443296 0)
(1.00099 0.00110601 0)
(1.0029 0.000496424 0)
(1.00317 0.00100561 0)
(1.00297 0.00205608 0)
(1.00375 0.00208852 0)
(1.00468 0.0018081 0)
(1.00496 0.00209875 0)
(1.00526 0.00249025 0)
(1.00606 0.00253592 0)
(1.00711 0.00244956 0)
(1.00813 0.00257387 0)
(1.00922 0.0028242 0)
(1.01053 0.00304661 0)
(1.01193 0.00317459 0)
(1.01311 0.00330425 0)
(1.01377 0.00347315 0)
(1.01369 0.00368185 0)
(1.00002 0.000206617 0)
(1.0003 -0.000480422 0)
(1.00004 0.00043348 0)
(1.00099 0.00125569 0)
(1.00286 0.000740545 0)
(1.00329 0.00107702 0)
(1.00305 0.00214013 0)
(1.00367 0.00232586 0)
(1.00461 0.00201291 0)
(1.005 0.00215506 0)
(1.00528 0.00253168 0)
(1.006 0.00263701 0)
(1.00705 0.0025207 0)
(1.00814 0.00252716 0)
(1.00926 0.00268246 0)
(1.01057 0.00285625 0)
(1.01195 0.00295463 0)
(1.01314 0.00303717 0)
(1.01383 0.00314087 0)
(1.01377 0.00328725 0)
(1.00001 0.000233111 0)
(1.00033 -0.000318105 0)
(1.00019 0.000486319 0)
(1.00101 0.00142948 0)
(1.00282 0.00103203 0)
(1.0034 0.00119338 0)
(1.00316 0.0022047 0)
(1.00361 0.00252697 0)
(1.00452 0.00222341 0)
(1.00501 0.00222004 0)
(1.00529 0.00253659 0)
(1.00594 0.0026815 0)
(1.00696 0.00257473 0)
(1.0081 0.00248825 0)
(1.00927 0.00254491 0)
(1.01058 0.0026515 0)
(1.01195 0.0027156 0)
(1.01314 0.00275517 0)
(1.01386 0.00280233 0)
(1.01381 0.00288862 0)
(0.999997 0.000234861 0)
(1.00034 -8.9776e-05 0)
(1.00032 0.000572553 0)
(1.00105 0.00158079 0)
(1.00276 0.00131483 0)
(1.00348 0.00133587 0)
(1.00327 0.00224561 0)
(1.00356 0.00269707 0)
(1.0044 0.00244992 0)
(1.00497 0.00233168 0)
(1.0053 0.0025511 0)
(1.00588 0.00270704 0)
(1.00685 0.00262111 0)
(1.008 0.00247122 0)
(1.00923 0.00242024 0)
(1.01054 0.00244243 0)
(1.0119 0.00244995 0)
(1.0131 0.00243994 0)
(1.01383 0.00243104 0)
(1.0138 0.00245918 0)
(0.999991 0.000305727 0)
(1.00035 3.19599e-05 0)
(1.00045 0.000602338 0)
(1.0011 0.00165922 0)
(1.00269 0.00156391 0)
(1.00353 0.00150649 0)
(1.00338 0.00229435 0)
(1.00353 0.00284702 0)
(1.00427 0.00268709 0)
(1.00489 0.0024861 0)
(1.00528 0.00258222 0)
(1.00581 0.00271217 0)
(1.00671 0.00263292 0)
(1.00786 0.00244546 0)
(1.00912 0.00229103 0)
(1.01046 0.00221965 0)
(1.01181 0.00215176 0)
(1.013 0.00208618 0)
(1.01375 0.0020205 0)
(1.01374 0.00199373 0)
(0.999984 0.000283105 0)
(1.00034 0.000289742 0)
(1.00057 0.000748284 0)
(1.00116 0.00179728 0)
(1.00263 0.00187159 0)
(1.00355 0.00175712 0)
(1.00348 0.00240444 0)
(1.00351 0.00300081 0)
(1.00412 0.00294203 0)
(1.00477 0.0026919 0)
(1.00521 0.00266163 0)
(1.00572 0.00272723 0)
(1.00655 0.00263965 0)
(1.00767 0.00242094 0)
(1.00894 0.00218334 0)
(1.0103 0.00200764 0)
(1.01166 0.0018544 0)
(1.01286 0.00172216 0)
(1.01362 0.00159836 0)
(1.01363 0.00151529 0)
(0.999985 0.000317654 0)
(1.00035 0.000453234 0)
(1.00065 0.000892343 0)
(1.00122 0.00191773 0)
(1.00255 0.0021556 0)
(1.00353 0.00203248 0)
(1.00356 0.00253877 0)
(1.0035 0.00314357 0)
(1.00397 0.00318487 0)
(1.0046 0.00292121 0)
(1.00509 0.00278205 0)
(1.0056 0.0027526 0)
(1.00636 0.00263797 0)
(1.00743 0.00238461 0)
(1.0087 0.00207489 0)
(1.01007 0.00179615 0)
(1.01144 0.00154626 0)
(1.01264 0.00133643 0)
(1.01342 0.00114922 0)
(1.01345 0.0010095 0)
(0.999982 0.000380072 0)
(1.00032 0.000549457 0)
(1.00075 0.00102897 0)
(1.0013 0.00203266 0)
(1.0025 0.00243075 0)
(1.00349 0.00233968 0)
(1.00362 0.00271571 0)
(1.00351 0.00329397 0)
(1.00383 0.00342131 0)
(1.0044 0.00317378 0)
(1.00492 0.00294347 0)
(1.00543 0.00281426 0)
(1.00615 0.00263791 0)
(1.00715 0.00234424 0)
(1.00839 0.00196015 0)
(1.00976 0.00157935 0)
(1.01114 0.00122489 0)
(1.01235 0.000921088 0)
(1.01315 0.00065971 0)
(1.01321 0.000456231 0)
(0.999985 0.000367285 0)
(1.00032 0.000813324 0)
(1.00082 0.00124985 0)
(1.00138 0.00219575 0)
(1.00244 0.00271495 0)
(1.00341 0.00268488 0)
(1.00364 0.0029499 0)
(1.00351 0.00347465 0)
(1.00369 0.00366917 0)
(1.00417 0.00345647 0)
(1.00469 0.00315639 0)
(1.0052 0.00291876 0)
(1.00587 0.00265767 0)
(1.00681 0.00229729 0)
(1.00799 0.00183763 0)
(1.00934 0.00134931 0)
(1.01073 0.000883016 0)
(1.01196 0.000468632 0)
(1.01279 0.000118742 0)
(1.01289 -0.000160513 0)
(0.999987 0.000400061 0)
(1.00029 0.00102104 0)
(1.00086 0.0014681 0)
(1.00144 0.00234593 0)
(1.00239 0.00296697 0)
(1.00332 0.00302929 0)
(1.00362 0.00322885 0)
(1.00349 0.00368869 0)
(1.00354 0.00393298 0)
(1.00391 0.00376568 0)
(1.00439 0.00341892 0)
(1.0049 0.00307599 0)
(1.00552 0.00271186 0)
(1.00638 0.00226674 0)
(1.0075 0.00171612 0)
(1.00882 0.00111984 0)
(1.0102 0.000521225 0)
(1.01145 -1.99489e-05 0)
(1.01232 -0.000488566 0)
(1.01246 -0.000868273 0)