/*--------------------------------*- C++ -*----------------------------------*\
| =========                 |                                                 |
| \\      /  F ield         | OpenFOAM: The Open Source CFD Toolbox           |
|  \\    /   O peration     | Version:  v2012                                 |
|   \\  /    A nd           | Website:  www.openfoam.com                      |
|    \\/     M anipulation  |                                                 |
\*---------------------------------------------------------------------------*/
FoamFile
{
    version     2.0;
    format      ascii;
    class       volScalarField;
    location    "1.9";
    object      p;
}
// * * * * * * * * * * * * * * * * * * * * * * * * * * * * * * * * * * * * * //

dimensions      [0 2 -2 0 0 0 0];


internalField   nonuniform List<scalar> 
17600
(
-7.97062e-11
0.000855931
0.000191752
-0.000595058
-0.000823734
-0.00098514
-0.0014202
-0.00200847
-0.00236479
-0.00257762
-0.00269551
-0.00301353
-0.00284665
-0.00316665
-0.00254578
-0.00251671
-0.00118942
-0.000112519
0.00244569
0.0061801
9.54947e-07
0.000852631
0.000193218
-0.000595605
-0.000822996
-0.000988293
-0.00141963
-0.00201052
-0.00236417
-0.00258053
-0.0026943
-0.00301773
-0.00284453
-0.00317504
-0.00254149
-0.00253442
-0.00117848
-0.000153229
0.00247232
0.00594226
2.26023e-06
0.000850052
0.000195714
-0.000596801
-0.000822154
-0.000991798
-0.00141873
-0.0020135
-0.00236323
-0.00258472
-0.00269298
-0.00302433
-0.00284324
-0.003188
-0.00253893
-0.0025597
-0.00116798
-0.000208478
0.0024881
0.00553735
3.8337e-06
0.000847286
0.000198538
-0.000598396
-0.000821723
-0.00099496
-0.00141807
-0.0020166
-0.00236241
-0.00258928
-0.00269235
-0.00303179
-0.00284373
-0.0032021
-0.00253976
-0.00258395
-0.00116465
-0.000256694
0.00246393
0.00513424
5.95973e-06
0.000844093
0.000201731
-0.000600407
-0.000821665
-0.000997889
-0.00141766
-0.00201985
-0.00236165
-0.00259424
-0.00269194
-0.00303997
-0.00284441
-0.00321726
-0.00254071
-0.0026082
-0.00116509
-0.000301295
0.0023987
0.00475889
8.77023e-06
0.00084039
0.000205355
-0.000602886
-0.000821839
-0.00100073
-0.00141732
-0.0020233
-0.0023608
-0.00259952
-0.00269137
-0.00304864
-0.00284477
-0.00323326
-0.00254142
-0.0026333
-0.00116872
-0.000347278
0.00229742
0.00441819
1.22055e-05
0.00083617
0.000209358
-0.000605778
-0.000822095
-0.00100355
-0.00141692
-0.00202695
-0.00235979
-0.00260504
-0.00269058
-0.00305767
-0.00284521
-0.00324971
-0.0025435
-0.00265825
-0.00117879
-0.000395232
0.00216316
0.00409487
1.61375e-05
0.000831515
0.00021366
-0.000608967
-0.000822306
-0.00100639
-0.00141638
-0.0020308
-0.00235864
-0.0026108
-0.00268965
-0.0030671
-0.00284607
-0.00326646
-0.00254825
-0.00268178
-0.00119911
-0.000443442
0.00199764
0.00378241
2.04599e-05
0.000826509
0.000218219
-0.000612369
-0.000822412
-0.00100926
-0.00141568
-0.00203493
-0.00235741
-0.00261683
-0.00268867
-0.00307694
-0.00284763
-0.00328329
-0.00255652
-0.00270321
-0.0012319
-0.000491038
0.00180263
0.00347312
2.51231e-05
0.000821227
0.000223011
-0.000615955
-0.000822404
-0.00101225
-0.00141484
-0.00203935
-0.00235613
-0.00262313
-0.00268774
-0.0030871
-0.00285025
-0.00329972
-0.00256926
-0.00272207
-0.00127826
-0.000538944
0.00158091
0.00316094
3.0122e-05
0.000815711
0.000228025
-0.000619731
-0.000822286
-0.00101536
-0.00141388
-0.00204409
-0.00235486
-0.00262966
-0.00268697
-0.00309736
-0.00285441
-0.00331513
-0.00258758
-0.00273801
-0.00133881
-0.000589505
0.00133731
0.00284122
3.54758e-05
0.000809977
0.000233262
-0.000623708
-0.000822056
-0.00101859
-0.00141284
-0.00204912
-0.00235364
-0.00263632
-0.00268653
-0.00310743
-0.00286071
-0.00332892
-0.00261242
-0.00275115
-0.00141376
-0.000645067
0.00107788
0.00251043
4.12184e-05
0.000804022
0.000238731
-0.000627895
-0.000821707
-0.00102193
-0.00141173
-0.00205442
-0.00235255
-0.00264299
-0.00268667
-0.00311692
-0.0028698
-0.00334061
-0.00264448
-0.00276213
-0.00150273
-0.000711203
0.000808733
0.00216679
4.73888e-05
0.000797834
0.000244445
-0.000632294
-0.000821234
-0.00102538
-0.00141059
-0.00205993
-0.0023517
-0.00264945
-0.00268773
-0.00312542
-0.00288224
-0.00334993
-0.00268428
-0.00277211
-0.00160458
-0.000791867
0.000534725
0.00181055
5.40286e-05
0.000791394
0.000250419
-0.000636896
-0.000820635
-0.00102892
-0.00140947
-0.00206557
-0.00235124
-0.00265545
-0.00269008
-0.0031326
-0.00289847
-0.00335691
-0.00273167
-0.00278324
-0.00171742
-0.000890286
0.000258794
0.00144315
6.11809e-05
0.000784683
0.000256669
-0.000641688
-0.000819916
-0.00103253
-0.00140845
-0.0020712
-0.00235142
-0.00266069
-0.00269407
-0.00313821
-0.00291885
-0.00336195
-0.00278596
-0.00279848
-0.00183891
-0.0010082
-1.79632e-05
0.00106645
6.88904e-05
0.000777682
0.000263211
-0.000646647
-0.000819099
-0.00103614
-0.00140766
-0.00207661
-0.00235247
-0.00266489
-0.0027
-0.00314204
-0.0029435
-0.00336584
-0.00284631
-0.00282062
-0.00196725
-0.00114669
-0.000295863
0.000682626
7.72027e-05
0.000770381
0.000270055
-0.000651736
-0.000818237
-0.00103964
-0.00140727
-0.00208163
-0.00235462
-0.0026678
-0.00270815
-0.00314409
-0.00297218
-0.00336977
-0.00291168
-0.00285246
-0.00210179
-0.00130575
-0.000575858
0.000294129
8.61611e-05
0.000762775
0.000277209
-0.000656893
-0.000817412
-0.00104292
-0.00140744
-0.00208603
-0.00235816
-0.00266917
-0.00271861
-0.00314467
-0.00300426
-0.0033752
-0.00298102
-0.00289592
-0.00224265
-0.00148439
-0.000859088
-9.65703e-05
9.58014e-05
0.00075488
0.000284673
-0.000662037
-0.000816746
-0.00104582
-0.00140839
-0.00208955
-0.00236331
-0.00266888
-0.00273134
-0.00314426
-0.00303884
-0.00338379
-0.00305358
-0.00295224
-0.00239069
-0.00168149
-0.00114684
-0.000487515
0.000106152
0.000746735
0.000292431
-0.000667053
-0.000816406
-0.00104814
-0.00141036
-0.00209196
-0.00237014
-0.00266704
-0.00274603
-0.00314357
-0.00307491
-0.00339702
-0.0031291
-0.00302179
-0.00254735
-0.00189643
-0.00144042
-0.000877366
0.000117232
0.000738417
0.000300442
-0.000671788
-0.000816595
-0.00104969
-0.00141357
-0.00209312
-0.00237855
-0.00266398
-0.00276214
-0.00314367
-0.00311178
-0.00341583
-0.00320776
-0.00310444
-0.00271402
-0.00212908
-0.00174116
-0.00126545
0.00012904
0.000730043
0.000308628
-0.000676048
-0.000817507
-0.00105028
-0.00141816
-0.00209301
-0.00238832
-0.00266011
-0.00277879
-0.00314569
-0.00314903
-0.00344206
-0.00329033
-0.00319989
-0.00289162
-0.00237953
-0.00205077
-0.00165185
0.000141551
0.000721785
0.000316899
-0.000679725
-0.000819354
-0.00104975
-0.00142416
-0.00209181
-0.00239925
-0.00265632
-0.00279496
-0.00315026
-0.00318624
-0.00347361
-0.00337785
-0.00330812
-0.0030807
-0.00264796
-0.0023717
-0.00203754
0.0001547
0.000713873
0.00032521
-0.000682485
-0.000822359
-0.00104804
-0.00143147
-0.00208987
-0.0024108
-0.00265315
-0.00281003
-0.00315806
-0.00322339
-0.00351095
-0.00347118
-0.00342921
-0.00328127
-0.00293418
-0.00270684
-0.00242547
0.000168378
0.000706609
0.000333517
-0.00068425
-0.000826695
-0.00104518
-0.00143982
-0.00208768
-0.00242237
-0.00265103
-0.00282388
-0.00316839
-0.00326113
-0.00355322
-0.00357135
-0.00356346
-0.00349285
-0.00323627
-0.00305829
-0.0028222
0.000182457
0.000700337
0.000341749
-0.000684881
-0.000832411
-0.00104133
-0.00144884
-0.00208559
-0.00243347
-0.0026502
-0.00283663
-0.00318046
-0.00330019
-0.00360023
-0.00367993
-0.00371243
-0.00371595
-0.00355049
-0.00342256
-0.00323134
0.000196805
0.000695436
0.000349912
-0.000684406
-0.00083937
-0.00103708
-0.00145799
-0.00208443
-0.00244365
-0.00265077
-0.00284851
-0.00319442
-0.00334188
-0.00365414
-0.00379981
-0.00387804
-0.0039491
-0.00387333
-0.00379947
-0.00364821
0.000211221
0.000692268
0.000358179
-0.000682943
-0.000847299
-0.00103317
-0.00146701
-0.00208422
-0.00245295
-0.00265254
-0.00286013
-0.00321035
-0.00338925
-0.00372132
-0.00393209
-0.00405734
-0.00418837
-0.00420096
-0.00418669
-0.00406953
0.000225464
0.000691137
0.000366861
-0.000680729
-0.000855725
-0.00103027
-0.0014757
-0.00208524
-0.00246135
-0.00265572
-0.00287261
-0.00323277
-0.00344648
-0.00379998
-0.00407174
-0.00424695
-0.00443278
-0.00453049
-0.00458025
-0.00449521
0.000239368
0.000692329
0.000376373
-0.000678249
-0.000864105
-0.00102858
-0.0014841
-0.00208871
-0.0024704
-0.00266173
-0.00288882
-0.00326852
-0.00351297
-0.0038849
-0.00421465
-0.00444586
-0.00468448
-0.00486135
-0.0049762
-0.00492225
0.000252853
0.000695936
0.000387412
-0.000675995
-0.00087222
-0.00102858
-0.00149301
-0.00209153
-0.00248224
-0.00267348
-0.00290951
-0.00330777
-0.00358604
-0.0039744
-0.00435952
-0.0046539
-0.00494617
-0.00519468
-0.00537173
-0.00534652
0.000265898
0.000701797
0.000400917
-0.00067423
-0.000880257
-0.00103006
-0.00150393
-0.00209448
-0.00249775
-0.00269299
-0.00293337
-0.00334963
-0.00366417
-0.0040692
-0.00450706
-0.0048704
-0.00521883
-0.00553148
-0.00576416
-0.00576387
0.000278573
0.000709488
0.000418095
-0.000672957
-0.000889038
-0.00103216
-0.00151871
-0.00210042
-0.00251698
-0.00271981
-0.00296005
-0.0033918
-0.00374627
-0.004171
-0.00465831
-0.00509318
-0.00550091
-0.00587134
-0.00615162
-0.00617179
0.000291009
0.000718371
0.000440341
-0.000671547
-0.00090011
-0.00103453
-0.00153894
-0.00211415
-0.00254043
-0.00275142
-0.00298988
-0.00343379
-0.00383145
-0.00428105
-0.0048136
-0.00531906
-0.00578948
-0.0062139
-0.00653434
-0.00656973
0.000303396
0.000727668
0.00046838
-0.000668761
-0.000915284
-0.00103795
-0.00156492
-0.00213519
-0.00256096
-0.00278592
-0.00302357
-0.00347591
-0.00391931
-0.00440021
-0.00497301
-0.00554482
-0.0060809
-0.00655887
-0.0069141
-0.00695887
0.000316158
0.000736449
0.000501893
-0.000663126
-0.000935985
-0.00104373
-0.00159596
-0.00216391
-0.00258147
-0.0028218
-0.00306196
-0.00351922
-0.00400948
-0.00452849
-0.00513698
-0.00576822
-0.00637123
-0.00690503
-0.00729274
-0.00734154
0.00032997
0.000743781
0.000539512
-0.000653111
-0.000962961
-0.00105349
-0.00163045
-0.00220066
-0.00260264
-0.00285747
-0.00310547
-0.00356533
-0.00410084
-0.00466439
-0.00530691
-0.00598956
-0.00665736
-0.00724936
-0.00767024
-0.00771963
0.000345473
0.000748939
0.000579063
-0.000637381
-0.000996108
-0.0010684
-0.00166643
-0.00224532
-0.00262609
-0.00289172
-0.00315382
-0.00361584
-0.00419171
-0.00480515
-0.00548462
-0.00621189
-0.00693812
-0.00758759
-0.00804374
-0.00809328
0.000363432
0.000751469
0.000617935
-0.000615214
-0.00103457
-0.00109043
-0.001702
-0.00229673
-0.00265398
-0.00292445
-0.00320613
-0.00367174
-0.00428118
-0.00494807
-0.00567078
-0.00643884
-0.00721391
-0.00791569
-0.00840844
-0.00846054
0.000384596
0.000751269
0.000653492
-0.00058656
-0.00107675
-0.00111961
-0.00173617
-0.00235287
-0.00268815
-0.0029567
-0.00326112
-0.00373331
-0.00436973
-0.00509108
-0.00586406
-0.00667178
-0.0074858
-0.00823135
-0.00875967
-0.00881824
0.000409308
0.000748539
0.000683514
-0.00055238
-0.00112074
-0.00115709
-0.00176901
-0.00241164
-0.00272926
-0.00298975
-0.00331781
-0.00380076
-0.00445874
-0.00523212
-0.00606099
-0.00690968
-0.00775518
-0.00853453
-0.00909431
-0.00916275
0.000437698
0.000744006
0.000706199
-0.000514866
-0.00116501
-0.00120293
-0.00180093
-0.00247128
-0.00277718
-0.00302425
-0.00337572
-0.0038747
-0.0045496
-0.0053689
-0.00625675
-0.00715053
-0.00802383
-0.00882723
-0.00941125
-0.00949045
0.000469803
0.00073877
0.000720104
-0.000477139
-0.00120853
-0.00125674
-0.00183267
-0.00253036
-0.00283133
-0.00306008
-0.00343412
-0.00395564
-0.00464391
-0.0054997
-0.00644622
-0.00739149
-0.00829332
-0.00911261
-0.00971125
-0.00979835
0.00050543
0.000733803
0.000724356
-0.000442231
-0.00125071
-0.00131776
-0.00186521
-0.00258779
-0.00289114
-0.00309742
-0.00349109
-0.0040432
-0.00474412
-0.00562471
-0.00662482
-0.0076276
-0.00856308
-0.00939359
-0.00999651
-0.0100851
0.000544001
0.000729864
0.000718534
-0.000413148
-0.00129146
-0.00138487
-0.00189939
-0.00264263
-0.00295613
-0.00313714
-0.0035443
-0.00413488
-0.00485274
-0.00574697
-0.00679005
-0.00785221
-0.0088292
-0.00967139
-0.0102701
-0.0103514
0.00058455
0.000727331
0.000703056
-0.000392342
-0.00133115
-0.00145673
-0.00193571
-0.00269437
-0.00302572
-0.00318073
-0.00359187
-0.00422589
-0.00497028
-0.00587132
-0.00694259
-0.00805934
-0.00908505
-0.00994464
-0.010535
-0.0106001
0.000625853
0.000726024
0.00067927
-0.000381478
-0.00137082
-0.00153202
-0.0019741
-0.00274319
-0.00309938
-0.00322975
-0.0036332
-0.00431067
-0.00509393
-0.00600171
-0.00708558
-0.00824594
-0.0093234
-0.0102089
-0.0107925
-0.0108347
0.000666897
0.000725471
0.000647956
-0.0003812
-0.00141169
-0.00161005
-0.00201394
-0.00278887
-0.00317699
-0.00328575
-0.00366898
-0.00438429
-0.00521773
-0.00613939
-0.00722373
-0.00841239
-0.00953845
-0.0104578
-0.011041
-0.0110581
0.000706766
0.000725025
0.000608554
-0.000391616
-0.00145479
-0.00169065
-0.00205461
-0.00282982
-0.00325831
-0.00335065
-0.00370082
-0.00444301
-0.00533433
-0.00628179
-0.00736153
-0.00856158
-0.00972697
-0.0106846
-0.0112765
-0.0112715
0.000743777
0.000723571
0.000563492
-0.000412692
-0.00150146
-0.00177408
-0.00209618
-0.00286413
-0.00334149
-0.00342693
-0.0037319
-0.00448439
-0.00543587
-0.00642303
-0.00750121
-0.00869772
-0.00988843
-0.0108834
-0.0114929
-0.0114735
0.000775941
0.000719581
0.000514612
-0.000443032
-0.00155333
-0.00186173
-0.00213994
-0.00289011
-0.0034222
-0.00351614
-0.00376728
-0.00450796
-0.00551493
-0.00655489
-0.00764091
-0.00882502
-0.0100251
-0.0110506
-0.0116835
-0.0116595
0.000801923
0.000711134
0.000461958
-0.000480271
-0.00161067
-0.00195591
-0.00218803
-0.00290667
-0.003495
-0.00361677
-0.00381265
-0.00451644
-0.00556536
-0.00666732
-0.007774
-0.00894571
-0.0101407
-0.0111856
-0.0118427
-0.0118234
0.000820351
0.000696632
0.0004046
-0.000522419
-0.00167252
-0.00205899
-0.00224334
-0.00291413
-0.00355436
-0.00372355
-0.00387263
-0.00451643
-0.00558373
-0.00674989
-0.00789201
-0.00905784
-0.0102383
-0.0112896
-0.0119664
-0.0119582
0.000830901
0.000674575
0.000340825
-0.000568632
-0.00173674
-0.00217205
-0.00230974
-0.0029147
-0.00359509
-0.00382834
-0.00394848
-0.00451615
-0.00557124
-0.00679335
-0.00798367
-0.00915397
-0.0103177
-0.0113635
-0.0120523
-0.0120577
0.000831779
0.000643844
0.000268984
-0.0006196
-0.00180066
-0.00229363
-0.00239175
-0.00291295
-0.0036133
-0.00392175
-0.00403636
-0.0045228
-0.00553418
-0.00679185
-0.00803651
-0.00922472
-0.0103757
-0.011407
-0.0120995
-0.0121169
0.000821084
0.000603788
0.000187006
-0.000677239
-0.00186258
-0.00242034
-0.0024928
-0.00291539
-0.00360781
-0.00399369
-0.00412724
-0.00453939
-0.00548084
-0.00674468
-0.00803965
-0.0092583
-0.0104047
-0.0114189
-0.0121063
-0.0121329
0.00079694
0.00055344
9.38072e-05
-0.000744365
-0.00192195
-0.00254771
-0.00261301
-0.00292986
-0.00358281
-0.0040355
-0.00420923
-0.00456297
-0.0054174
-0.00665523
-0.00798512
-0.00924082
-0.0103929
-0.0113945
-0.0120722
-0.0121028
0.000757477
0.000491344
-1.14841e-05
-0.000824662
-0.00198011
-0.00267137
-0.00274899
-0.00296297
-0.00354699
-0.00404328
-0.00426984
-0.00458526
-0.00534577
-0.00652782
-0.00786861
-0.00915969
-0.0103287
-0.0113246
-0.0119932
-0.0120253
0.000700574
0.000417226
-0.000129943
-0.000922269
-0.00204104
-0.00278794
-0.00289563
-0.00301757
-0.00350878
-0.00401966
-0.00429853
-0.00459401
-0.00526283
-0.00636489
-0.00768811
-0.00900377
-0.0101964
-0.011196
-0.0118602
-0.0118952
0.000623801
0.000328777
-0.000261123
-0.00104
-0.00211008
-0.00289647
-0.00304723
-0.00309378
-0.00347579
-0.00396903
-0.00428909
-0.00457613
-0.00516051
-0.00616546
-0.0074414
-0.00876306
-0.00997808
-0.0109908
-0.0116586
-0.0117003
0.000524557
0.000223639
-0.000405316
-0.00117881
-0.00219277
-0.0029991
-0.00319887
-0.0031898
-0.0034547
-0.00389739
-0.00423782
-0.00452047
-0.00502782
-0.00592391
-0.00712414
-0.00842604
-0.00965378
-0.0106847
-0.0113669
-0.011418
0.000399839
9.88215e-05
-0.000562634
-0.0013388
-0.00229446
-0.00309921
-0.00334739
-0.00330293
-0.00345091
-0.00381401
-0.00414593
-0.0044186
-0.00485214
-0.00562973
-0.00672715
-0.00797616
-0.00919772
-0.0102451
-0.0109401
-0.0110122
0.000246482
-4.97476e-05
-0.000733916
-0.00151869
-0.00241928
-0.00320248
-0.0034905
-0.00342996
-0.00346995
-0.0037304
-0.00402208
-0.00426732
-0.00462065
-0.00526638
-0.00623321
-0.00739016
-0.0085677
-0.00961608
-0.0103339
-0.0104462
5.97193e-05
-0.000225801
-0.000921856
-0.00171685
-0.00256927
-0.00331532
-0.00362827
-0.00356713
-0.00351587
-0.00366126
-0.00388323
-0.00407302
-0.00432584
-0.00481587
-0.00561329
-0.00663504
-0.00773414
-0.00874675
-0.00948453
-0.00966046
-0.000162573
-0.000434769
-0.00112921
-0.00193394
-0.002745
-0.0034419
-0.00376379
-0.00371168
-0.00359072
-0.00362057
-0.00375166
-0.00386236
-0.00397667
-0.00426014
-0.00482245
-0.00564308
-0.00659201
-0.00753427
-0.00828702
-0.00856503
-0.000420318
-0.000680834
-0.00136093
-0.0021727
-0.00294622
-0.00358582
-0.003901
-0.00386136
-0.00369783
-0.00361892
-0.003641
-0.00366367
-0.0036353
-0.00363337
-0.00383169
-0.00429292
-0.00497309
-0.00574637
-0.00650453
-0.00698599
-0.000715449
-0.000961157
-0.0016304
-0.00243665
-0.00317179
-0.00374866
-0.00404355
-0.00401796
-0.00383717
-0.00367459
-0.00356215
-0.0034816
-0.00338301
-0.00316844
-0.00280885
-0.00240414
-0.00215513
-0.00225558
-0.00272045
-0.00338847
-0.00105702
-0.00128197
-0.00194099
-0.00272705
-0.00341621
-0.00392819
-0.00419315
-0.00418089
-0.0040086
-0.00380933
-0.00357779
-0.00326651
-0.00300976
-0.00301739
-0.00299385
-0.00228958
-0.000713449
0.00103197
0.00236329
0.00309403
-0.00146514
-0.00166617
-0.00228665
-0.00303362
-0.0036679
-0.00411626
-0.00434828
-0.00434641
-0.00417239
-0.00397564
-0.0038068
-0.00326573
-0.00198129
-0.000476617
0.000842295
0.00194518
0.00302356
0.00411929
0.00502714
0.00533665
-0.00194603
-0.00211795
-0.00267548
-0.00335155
-0.00390954
-0.00429323
-0.00448932
-0.00449702
-0.00428852
-0.00357691
-0.00232404
-0.00100606
0.000145616
0.00110613
0.00200344
0.00294949
0.00397908
0.00499883
0.00576447
0.00590386
-0.00250597
-0.00264219
-0.00311444
-0.00367903
-0.00411661
-0.00439227
-0.00451777
-0.00416909
-0.00322304
-0.00212686
-0.00114459
-0.000306878
0.000496552
0.00142522
0.00249667
0.00366608
0.00484951
0.00591274
0.00664357
0.00669845
-0.00317076
-0.00326752
-0.00357832
-0.00397175
-0.00425515
-0.00412326
-0.00367134
-0.00306976
-0.0023996
-0.00170155
-0.000971059
-0.000144974
0.000834047
0.00195404
0.00318951
0.00447985
0.00573153
0.00680475
0.0074849
0.00744182
-0.0039456
-0.00404048
-0.00404367
-0.0039348
-0.00371998
-0.00341528
-0.00305526
-0.00265173
-0.00215276
-0.00150766
-0.000704334
0.000253171
0.00134683
0.00255717
0.00385344
0.00518168
0.00644785
0.00750437
0.008127
0.00799046
-0.00468537
-0.00467217
-0.00428117
-0.00379247
-0.00335788
-0.00301452
-0.00270674
-0.00234638
-0.00185087
-0.00117231
-0.000315791
0.00069183
0.00182852
0.0030765
0.0043991
0.00573159
0.00697702
0.00798931
0.00854946
0.00833637
-0.00527708
-0.00513168
-0.00452585
-0.00379238
-0.00317868
-0.00273383
-0.00237887
-0.00199784
-0.00148914
-0.000805542
5.63224e-05
0.00107838
0.00223552
0.00349741
0.00482089
0.00614097
0.00736089
0.00833585
0.00884911
0.00858245
-0.0057316
-0.00549719
-0.00477438
-0.00387817
-0.00308599
-0.00250372
-0.00207103
-0.00165622
-0.00114638
-0.000474612
0.000379094
0.00140198
0.00256519
0.00383168
0.00515304
0.00646219
0.00766201
0.00860858
0.00908686
0.00878098
-0.00609181
-0.00579644
-0.00498895
-0.0039699
-0.00303514
-0.00232816
-0.00181326
-0.00136265
-0.000849201
-0.000190366
0.0006471
0.00166016
0.00282367
0.00409206
0.00541192
0.00671312
0.00789794
0.00882348
0.0092764
0.00894282
-0.00636596
-0.00603278
-0.00515657
-0.00405304
-0.00302064
-0.0022177
-0.001629
-0.00113514
-0.000603887
5.73769e-05
0.000889618
0.0018954
0.00304911
0.00431194
0.00562564
0.0069168
0.00808841
0.00899853
0.00943446
0.00908269
-0.00654002
-0.00619291
-0.00528122
-0.00413218
-0.00305044
-0.00219774
-0.00156272
-0.00103216
-0.000475705
0.000203578
0.00105236
0.00207155
0.00323374
0.00449455
0.0058
0.00707757
0.00823752
0.00913891
0.00956903
0.00921333
0.0116987
0.00625986
-0.00157032
-0.00699747
-0.00827504
-0.00715644
-0.00571248
-0.00471116
-0.00417816
-0.00395499
-0.00390981
-0.00396958
-0.00409547
-0.00426044
-0.00444396
-0.00463322
-0.00482208
-0.00500763
-0.0051878
-0.00536152
-0.00552877
-0.00568992
-0.00584531
-0.00599578
-0.00614278
-0.0062876
-0.00643058
-0.00657146
-0.00671023
-0.00684749
-0.00698386
-0.0071193
-0.00725323
-0.0073853
-0.00751584
-0.00764517
-0.00777289
-0.00789809
-0.00802019
-0.00813955
-0.00825687
-0.00837239
-0.00848612
-0.0085981
-0.00870852
-0.00881773
-0.00892612
-0.00903404
-0.00914176
-0.00924949
-0.0093573
-0.00946519
-0.00957319
-0.00968135
-0.0097897
-0.00989836
-0.0100073
-0.0101164
-0.0102255
-0.0103346
-0.0104437
-0.0105529
-0.0106619
-0.0107705
-0.0108787
-0.0109868
-0.0110951
-0.0112036
-0.0113122
-0.0114212
-0.0115308
-0.0116413
-0.0117526
-0.0118647
-0.0119772
-0.0120899
-0.0122027
-0.0123158
-0.0124291
-0.0125429
-0.0126573
-0.0127723
-0.0128879
-0.0130044
-0.0131219
-0.01324
-0.0133583
-0.0134766
-0.0135949
-0.0137136
-0.013833
-0.013953
-0.0140739
-0.0141955
-0.014318
-0.014441
-0.0145646
-0.0146886
-0.0148129
-0.0149376
-0.015063
-0.0151891
-0.015316
-0.0154436
-0.0155718
-0.0157005
-0.0158294
-0.0159588
-0.0160887
-0.0162192
-0.0163503
-0.0164821
-0.0166146
-0.0167478
-0.0168817
-0.0170162
-0.0171514
-0.0172873
-0.0174242
-0.0175621
-0.0177012
-0.0178412
-0.0179818
-0.0181232
-0.0182654
-0.0184088
-0.0185531
-0.0186986
-0.0188446
-0.0189916
-0.0191389
-0.0192875
-0.0194367
-0.0195867
-0.0197371
-0.0198883
-0.0200401
-0.0201924
-0.0203455
-0.0204989
-0.0206532
-0.020807
-0.020962
-0.0211171
-0.0212732
-0.0214291
-0.0215857
-0.0217424
-0.021899
-0.022056
-0.0222141
-0.0223739
-0.0225324
-0.02269
-0.0228481
-0.0230094
-0.023172
-0.0233323
-0.0234914
-0.0236517
-0.0238165
-0.0239809
-0.0241435
-0.0243047
-0.0244687
-0.0246362
-0.0248024
-0.0249681
-0.0251315
-0.0253003
-0.02547
-0.0256394
-0.025806
-0.0259749
-0.0261486
-0.0263197
-0.0264915
-0.0266622
-0.0268384
-0.0270127
-0.0271869
-0.0273633
-0.0275393
-0.027719
-0.0278954
-0.0280759
-0.0282566
-0.0284365
-0.028621
-0.0288015
-0.0289876
-0.0291718
-0.0293568
-0.0295448
-0.0297304
-0.0299203
-0.0301037
-0.0302965
-0.0304603
-0.0306168
0.0107952
0.00605979
-0.00149488
-0.00686514
-0.00819467
-0.00711792
-0.00568827
-0.00469385
-0.00416552
-0.00394527
-0.00390185
-0.00396276
-0.00408947
-0.00425509
-0.00443914
-0.00462886
-0.00481812
-0.00500402
-0.00518451
-0.0053585
-0.00552601
-0.00568739
-0.00584299
-0.00599365
-0.00614082
-0.00628578
-0.0064289
-0.00656989
-0.00670876
-0.00684612
-0.00698258
-0.00711809
-0.00725208
-0.00738421
-0.0075148
-0.00764419
-0.00777195
-0.00789719
-0.00801934
-0.00813873
-0.00825608
-0.00837163
-0.00848539
-0.00859739
-0.00870784
-0.00881707
-0.00892548
-0.00903342
-0.00914117
-0.00924891
-0.00935674
-0.00946465
-0.00957266
-0.00968083
-0.00978921
-0.00989788
-0.0100068
-0.010116
-0.0102251
-0.0103342
-0.0104433
-0.0105525
-0.0106615
-0.0107701
-0.0108783
-0.0109865
-0.0110948
-0.0112033
-0.0113119
-0.0114209
-0.0115305
-0.011641
-0.0117523
-0.0118644
-0.0119769
-0.0120896
-0.0122025
-0.0123155
-0.0124289
-0.0125427
-0.0126571
-0.012772
-0.0128877
-0.0130042
-0.0131217
-0.0132398
-0.0133581
-0.0134764
-0.0135947
-0.0137134
-0.0138328
-0.0139528
-0.0140737
-0.0141953
-0.0143178
-0.0144409
-0.0145645
-0.0146884
-0.0148127
-0.0149375
-0.0150629
-0.015189
-0.0153158
-0.0154435
-0.0155717
-0.0157003
-0.0158293
-0.0159587
-0.0160886
-0.016219
-0.0163502
-0.016482
-0.0166145
-0.0167477
-0.0168816
-0.0170161
-0.0171513
-0.0172872
-0.0174241
-0.017562
-0.0177011
-0.0178411
-0.0179817
-0.0181231
-0.0182653
-0.0184087
-0.018553
-0.0186985
-0.0188445
-0.0189915
-0.0191388
-0.0192875
-0.0194366
-0.0195867
-0.019737
-0.0198883
-0.0200401
-0.0201924
-0.0203454
-0.0204989
-0.0206531
-0.020807
-0.0209619
-0.021117
-0.0212732
-0.021429
-0.0215856
-0.0217424
-0.021899
-0.0220559
-0.0222141
-0.0223739
-0.0225324
-0.02269
-0.0228481
-0.0230094
-0.023172
-0.0233323
-0.0234914
-0.0236517
-0.0238165
-0.0239809
-0.0241435
-0.0243047
-0.0244687
-0.0246362
-0.0248024
-0.0249681
-0.0251314
-0.0253003
-0.0254699
-0.0256394
-0.025806
-0.0259749
-0.0261486
-0.0263197
-0.0264915
-0.0266622
-0.0268384
-0.0270127
-0.0271869
-0.0273633
-0.0275393
-0.027719
-0.0278954
-0.0280759
-0.0282566
-0.0284365
-0.028621
-0.0288015
-0.0289876
-0.0291718
-0.0293568
-0.0295448
-0.0297304
-0.0299203
-0.0301037
-0.0302965
-0.0304603
-0.0306168
0.00987449
0.00586933
-0.00131766
-0.00661062
-0.00804719
-0.0070589
-0.00565709
-0.00467029
-0.00414707
-0.00393114
-0.00389093
-0.00395408
-0.00408231
-0.00424898
-0.00443379
-0.00462409
-0.00481383
-0.00500013
-0.00518096
-0.00535527
-0.00552305
-0.00568468
-0.00584051
-0.00599138
-0.00613873
-0.00628386
-0.00642713
-0.00656826
-0.00670725
-0.00684471
-0.00698126
-0.00711686
-0.00725093
-0.00738313
-0.00751378
-0.00764321
-0.00777103
-0.00789631
-0.0080185
-0.00813793
-0.00825531
-0.00837089
-0.00848468
-0.00859671
-0.00870717
-0.00881643
-0.00892487
-0.00903282
-0.00914058
-0.00924835
-0.00935619
-0.00946412
-0.00957215
-0.00968034
-0.00978873
-0.00989742
-0.0100064
-0.0101155
-0.0102247
-0.0103338
-0.0104429
-0.0105521
-0.0106611
-0.0107698
-0.0108779
-0.0109861
-0.0110945
-0.011203
-0.0113116
-0.0114206
-0.0115302
-0.0116407
-0.011752
-0.0118641
-0.0119766
-0.0120894
-0.0122022
-0.0123153
-0.0124287
-0.0125425
-0.0126569
-0.0127718
-0.0128875
-0.013004
-0.0131215
-0.0132396
-0.013358
-0.0134762
-0.0135946
-0.0137132
-0.0138326
-0.0139526
-0.0140735
-0.0141952
-0.0143176
-0.0144407
-0.0145643
-0.0146883
-0.0148126
-0.0149374
-0.0150628
-0.0151889
-0.0153157
-0.0154433
-0.0155715
-0.0157002
-0.0158292
-0.0159586
-0.0160885
-0.0162189
-0.0163501
-0.0164819
-0.0166144
-0.0167476
-0.0168815
-0.017016
-0.0171512
-0.0172871
-0.017424
-0.0175619
-0.017701
-0.017841
-0.0179817
-0.018123
-0.0182652
-0.0184086
-0.0185529
-0.0186984
-0.0188444
-0.0189914
-0.0191388
-0.0192874
-0.0194365
-0.0195866
-0.019737
-0.0198882
-0.02004
-0.0201923
-0.0203454
-0.0204988
-0.0206531
-0.0208069
-0.0209619
-0.021117
-0.0212731
-0.021429
-0.0215856
-0.0217423
-0.0218989
-0.0220559
-0.022214
-0.0223739
-0.0225324
-0.0226899
-0.0228481
-0.0230093
-0.023172
-0.0233323
-0.0234913
-0.0236516
-0.0238165
-0.0239808
-0.0241434
-0.0243047
-0.0244686
-0.0246362
-0.0248024
-0.0249681
-0.0251314
-0.0253003
-0.0254699
-0.0256394
-0.0258059
-0.0259748
-0.0261486
-0.0263197
-0.0264914
-0.0266622
-0.0268383
-0.0270127
-0.0271869
-0.0273633
-0.0275393
-0.027719
-0.0278954
-0.0280759
-0.0282566
-0.0284365
-0.028621
-0.0288015
-0.0289876
-0.0291718
-0.0293568
-0.0295448
-0.0297304
-0.0299203
-0.0301037
-0.0302965
-0.0304603
-0.0306168
0.00901401
0.00570046
-0.00106776
-0.00627217
-0.00784215
-0.00697536
-0.00561331
-0.00463553
-0.00411887
-0.0039098
-0.00387515
-0.00394222
-0.00407303
-0.00424134
-0.00442723
-0.0046183
-0.00480863
-0.00499542
-0.00517666
-0.00535132
-0.00551941
-0.00568132
-0.00583743
-0.00598856
-0.00613616
-0.00628152
-0.006425
-0.00656631
-0.00670546
-0.00684307
-0.00697975
-0.00711546
-0.00724963
-0.00738192
-0.00751265
-0.00764216
-0.00777003
-0.00789537
-0.0080176
-0.00813708
-0.0082545
-0.00837012
-0.00848395
-0.008596
-0.00870649
-0.00881577
-0.00892423
-0.00903222
-0.00913999
-0.00924777
-0.00935564
-0.00946358
-0.00957163
-0.00967983
-0.00978824
-0.00989694
-0.0100059
-0.0101151
-0.0102243
-0.0103334
-0.0104425
-0.0105517
-0.0106608
-0.0107694
-0.0108776
-0.0109858
-0.0110941
-0.0112026
-0.0113113
-0.0114203
-0.0115299
-0.0116404
-0.0117517
-0.0118639
-0.0119764
-0.0120891
-0.012202
-0.012315
-0.0124284
-0.0125422
-0.0126566
-0.0127716
-0.0128873
-0.0130038
-0.0131213
-0.0132394
-0.0133578
-0.013476
-0.0135944
-0.0137131
-0.0138324
-0.0139525
-0.0140734
-0.014195
-0.0143175
-0.0144406
-0.0145642
-0.0146881
-0.0148124
-0.0149372
-0.0150626
-0.0151887
-0.0153156
-0.0154432
-0.0155714
-0.0157001
-0.0158291
-0.0159585
-0.0160884
-0.0162188
-0.0163499
-0.0164818
-0.0166143
-0.0167475
-0.0168814
-0.0170159
-0.0171512
-0.017287
-0.0174239
-0.0175618
-0.0177009
-0.0178409
-0.0179816
-0.018123
-0.0182651
-0.0184085
-0.0185529
-0.0186984
-0.0188444
-0.0189914
-0.0191387
-0.0192873
-0.0194364
-0.0195865
-0.0197369
-0.0198882
-0.02004
-0.0201922
-0.0203453
-0.0204988
-0.020653
-0.0208069
-0.0209618
-0.0211169
-0.0212731
-0.0214289
-0.0215855
-0.0217423
-0.0218989
-0.0220558
-0.022214
-0.0223738
-0.0225323
-0.0226899
-0.022848
-0.0230093
-0.0231719
-0.0233322
-0.0234913
-0.0236516
-0.0238165
-0.0239808
-0.0241434
-0.0243047
-0.0244686
-0.0246362
-0.0248024
-0.024968
-0.0251314
-0.0253003
-0.0254699
-0.0256394
-0.0258059
-0.0259748
-0.0261486
-0.0263197
-0.0264914
-0.0266622
-0.0268383
-0.0270127
-0.0271869
-0.0273633
-0.0275393
-0.027719
-0.0278954
-0.0280759
-0.0282566
-0.0284365
-0.028621
-0.0288015
-0.0289876
-0.0291718
-0.0293567
-0.0295448
-0.0297304
-0.0299203
-0.0301037
-0.0302965
-0.0304603
-0.0306168
0.0081954
0.00551131
-0.000801081
-0.00590447
-0.00761293
-0.00688117
-0.00556369
-0.00459291
-0.00408181
-0.00388074
-0.00385346
-0.00392599
-0.00406047
-0.00423115
-0.00441858
-0.00461072
-0.00480185
-0.00498927
-0.00517101
-0.00534608
-0.00551453
-0.00567675
-0.00583319
-0.00598466
-0.0061326
-0.00627828
-0.00642204
-0.00656362
-0.00670301
-0.00684084
-0.00697772
-0.0071136
-0.00724793
-0.00738037
-0.00751122
-0.00764083
-0.0077688
-0.00789421
-0.00801651
-0.00813606
-0.00825355
-0.00836922
-0.0084831
-0.00859519
-0.00870572
-0.00881503
-0.00892352
-0.00903153
-0.00913933
-0.00924713
-0.00935502
-0.00946298
-0.00957105
-0.00967927
-0.00978769
-0.00989641
-0.0100054
-0.0101146
-0.0102238
-0.0103329
-0.010442
-0.0105513
-0.0106603
-0.010769
-0.0108772
-0.0109854
-0.0110937
-0.0112023
-0.0113109
-0.01142
-0.0115296
-0.0116401
-0.0117514
-0.0118636
-0.0119761
-0.0120888
-0.0122017
-0.0123148
-0.0124282
-0.012542
-0.0126564
-0.0127714
-0.012887
-0.0130036
-0.0131211
-0.0132392
-0.0133576
-0.0134758
-0.0135942
-0.0137129
-0.0138322
-0.0139523
-0.0140732
-0.0141948
-0.0143173
-0.0144404
-0.014564
-0.014688
-0.0148123
-0.0149371
-0.0150625
-0.0151886
-0.0153154
-0.0154431
-0.0155713
-0.0157
-0.0158289