/*--------------------------------*- C++ -*----------------------------------*\
| =========                 |                                                 |
| \\      /  F ield         | OpenFOAM: The Open Source CFD Toolbox           |
|  \\    /   O peration     | Version:  v2012                                 |
|   \\  /    A nd           | Website:  www.openfoam.com                      |
|    \\/     M anipulation  |                                                 |
\*---------------------------------------------------------------------------*/
FoamFile
{
    version     2.0;
    format      ascii;
    class       volScalarField;
    location    "2.05";
    object      p;
}
// * * * * * * * * * * * * * * * * * * * * * * * * * * * * * * * * * * * * * //

dimensions      [0 2 -2 0 0 0 0];


internalField   nonuniform List<scalar> 
17600
(
1.91563e-10
9.05741e-05
-0.000887739
-0.00158788
-0.00105164
-0.00148409
-0.00182494
-0.0027549
-0.00279822
-0.00376679
-0.00404794
-0.00420901
-0.00445515
-0.00384744
-0.00419294
-0.00334879
-0.00282863
-0.00116976
0.000675618
0.00443903
4.97782e-07
9.0446e-05
-0.000886814
-0.00158841
-0.00105161
-0.00148671
-0.0018246
-0.00275875
-0.00279704
-0.00377146
-0.00404623
-0.00421455
-0.00445295
-0.00386738
-0.00418674
-0.00337584
-0.0028193
-0.00123796
0.000690012
0.00412235
1.45905e-06
8.99417e-05
-0.000885558
-0.0015895
-0.00105237
-0.00149079
-0.00182512
-0.00276468
-0.00279598
-0.00377852
-0.0040434
-0.00422209
-0.00444981
-0.00388804
-0.00418024
-0.00340482
-0.0028098
-0.00130721
0.000688063
0.0036969
2.85625e-06
8.87757e-05
-0.000884496
-0.00159054
-0.0010541
-0.00149562
-0.00182696
-0.00277176
-0.00279595
-0.00378591
-0.00404059
-0.00422911
-0.00444593
-0.00390839
-0.00417451
-0.00343554
-0.00280238
-0.00137767
0.000656241
0.00328267
4.83316e-06
8.67892e-05
-0.00088339
-0.00159146
-0.00105673
-0.00150124
-0.00182961
-0.00277988
-0.00279611
-0.00379313
-0.00403755
-0.00423534
-0.00444157
-0.00392956
-0.00416877
-0.00346955
-0.0027966
-0.00145291
0.000593735
0.00289004
7.44406e-06
8.39846e-05
-0.000882037
-0.00159241
-0.00106002
-0.00150753
-0.00183243
-0.00278871
-0.0027957
-0.00379998
-0.00403395
-0.00424093
-0.00443699
-0.00395153
-0.00416325
-0.00350708
-0.00279371
-0.00153337
0.000501445
0.00252055
1.06083e-05
8.04597e-05
-0.000880406
-0.00159345
-0.00106364
-0.00151425
-0.00183503
-0.00279794
-0.00279463
-0.00380639
-0.00403004
-0.00424607
-0.00443252
-0.00397427
-0.00415851
-0.00354636
-0.00279608
-0.00161808
0.00038019
0.00216979
1.42013e-05
7.63433e-05
-0.000878529
-0.00159457
-0.00106732
-0.00152131
-0.0018373
-0.0028075
-0.00279317
-0.00381243
-0.0040263
-0.00425084
-0.0044286
-0.00399764
-0.00415519
-0.00358698
-0.00280606
-0.00170528
0.00023056
0.00183159
1.81378e-05
7.18301e-05
-0.000876472
-0.00159578
-0.00107095
-0.00152869
-0.00183933
-0.00281742
-0.00279159
-0.00381819
-0.00402306
-0.00425522
-0.00442562
-0.00402124
-0.00415419
-0.0036283
-0.00282562
-0.00179451
5.38369e-05
0.00149986
2.23873e-05
6.69955e-05
-0.000874314
-0.0015971
-0.00107453
-0.0015364
-0.00184124
-0.00282768
-0.00279011
-0.00382361
-0.00402053
-0.00425909
-0.00442393
-0.00404463
-0.0041564
-0.00366963
-0.00285644
-0.00188618
-0.000147291
0.00116931
2.69546e-05
6.18878e-05
-0.000872111
-0.00159857
-0.00107809
-0.00154444
-0.00184318
-0.00283822
-0.0027889
-0.00382854
-0.00401898
-0.00426215
-0.00442392
-0.00406737
-0.00416265
-0.0037105
-0.00289977
-0.00198171
-0.00036883
0.000835797
3.18592e-05
5.6537e-05
-0.000869884
-0.0016002
-0.00108166
-0.00155274
-0.00184525
-0.0028489
-0.00278816
-0.00383277
-0.00401872
-0.00426406
-0.00442609
-0.00408903
-0.00417374
-0.00375091
-0.00295591
-0.00208355
-0.000606074
0.000496766
3.7123e-05
5.09677e-05
-0.00086763
-0.00160202
-0.00108526
-0.00156122
-0.00184756
-0.00285953
-0.00278812
-0.00383609
-0.00402011
-0.00426442
-0.004431
-0.00410924
-0.00419035
-0.00379158
-0.00302418
-0.00219476
-0.000854554
0.000151506
4.2766e-05
4.52035e-05
-0.000865337
-0.00160403
-0.0010889
-0.0015698
-0.00185021
-0.00286994
-0.00278905
-0.0038382
-0.00402361
-0.00426285
-0.00443908
-0.00412789
-0.00421279
-0.00383401
-0.00310299
-0.00231842
-0.00111109
-0.000199166
4.88035e-05
3.92681e-05
-0.000862989
-0.00160623
-0.00109261
-0.00157838
-0.0018533
-0.00287991
-0.00279126
-0.00383878
-0.00402971
-0.00425903
-0.00445058
-0.00414519
-0.00424087
-0.00388042
-0.00319042
-0.0024568
-0.00137426
-0.000553323
5.52454e-05
3.31892e-05
-0.000860575
-0.00160862
-0.00109642
-0.00158688
-0.001857
-0.00288919
-0.00279511
-0.00383742
-0.00403886
-0.0042528
-0.00446559
-0.00416178
-0.00427371
-0.00393347
-0.00328505
-0.00261109
-0.001644
-0.00090867
6.20937e-05
2.70029e-05
-0.000858085
-0.00161116
-0.00110039
-0.00159516
-0.00186148
-0.0028975
-0.00280101
-0.00383374
-0.00405137
-0.00424403
-0.00448406
-0.0041789
-0.00430977
-0.0039956
-0.00338658
-0.00278106
-0.00192115
-0.00126353
6.93398e-05
2.07624e-05
-0.000855513
-0.00161382
-0.00110463
-0.00160306
-0.00186695
-0.00290458
-0.00280933
-0.00382746
-0.00406737
-0.00423258
-0.00450562
-0.00419825
-0.0043473
-0.00406868
-0.00349583
-0.00296495
-0.00220707
-0.00161739
7.69599e-05
1.45461e-05
-0.000852862
-0.00161651
-0.00110924
-0.0016104
-0.00187364
-0.00291012
-0.00282044
-0.00381841
-0.00408688
-0.00422017
-0.00452919
-0.00422174
-0.00438527
-0.00415395
-0.00361433
-0.00316013
-0.00250278
-0.00197054
8.49154e-05
8.45501e-06
-0.000850143
-0.00161916
-0.00111439
-0.00161697
-0.00188184
-0.00291384
-0.00283462
-0.00380657
-0.00410968
-0.00420731
-0.00455315
-0.00425119
-0.00442371
-0.00425182
-0.00374437
-0.00336411
-0.00280827
-0.00232406
9.31515e-05
2.61621e-06
-0.000847384
-0.00162164
-0.00112028
-0.00162255
-0.00189179
-0.00291552
-0.00285201
-0.00379213
-0.00413516
-0.00419528
-0.00457574
-0.00428795
-0.00446313
-0.00436163
-0.00388886
-0.00357565
-0.00312264
-0.00267965
0.000101585
-2.7983e-06
-0.000844638
-0.00162378
-0.00112714
-0.00162696
-0.0019037
-0.00291506
-0.00287261
-0.00377551
-0.00416245
-0.00418555
-0.0045955
-0.0043329
-0.0045046
-0.00448184
-0.00405066
-0.00379523
-0.00344448
-0.00303931
0.000110098
-7.57246e-06
-0.000841968
-0.00162543
-0.00113516
-0.00163002
-0.00191776
-0.00291251
-0.0028961
-0.00375756
-0.00419025
-0.00417932
-0.00461155
-0.00438651
-0.00454965
-0.0046105
-0.00423187
-0.00402484
-0.00377245
-0.00340482
0.000118516
-1.15264e-05
-0.000839424
-0.00162644
-0.00114452
-0.00163161
-0.00193404
-0.00290818
-0.00292178
-0.00373948
-0.00421716
-0.0041774
-0.00462374
-0.0044489
-0.00460011
-0.00474572
-0.00443365
-0.0042674
-0.00410592
-0.00377739
0.000126668
-1.58741e-05
-0.000837055
-0.00162671
-0.00115534
-0.00163183
-0.0019523
-0.00290273
-0.00294873
-0.00372234
-0.00424227
-0.00418041
-0.00463193
-0.00451945
-0.00465803
-0.00488544
-0.00465551
-0.00452609
-0.00444547
-0.00415852
0.0001344
-1.67385e-05
-0.000834946
-0.00162616
-0.00116771
-0.00163085
-0.00197227
-0.00289681
-0.00297623
-0.00370709
-0.00426511
-0.00418843
-0.00463766
-0.0045967
-0.00472547
-0.00502717
-0.00489473
-0.0048023
-0.00479238
-0.0045536
0.000141434
-1.51585e-05
-0.000833085
-0.00162481
-0.00118156
-0.00162895
-0.00199346
-0.00289111
-0.00300378
-0.00369236
-0.00428606
-0.00420097
-0.00464373
-0.00467983
-0.00480525
-0.0051715
-0.00514836
-0.00509541
-0.00514046
-0.00496711
0.000147456
-1.08067e-05
-0.000831382
-0.00162285
-0.0011966
-0.00162683
-0.00201494
-0.00288649
-0.00303086
-0.0036788
-0.00430494
-0.00421837
-0.00464892
-0.00476926
-0.00490331
-0.00532146
-0.00541209
-0.00540492
-0.00549354
-0.00538391
0.000152114
-3.22909e-06
-0.000829618
-0.0016205
-0.00121235
-0.00162545
-0.00203587
-0.00288338
-0.0030574
-0.00366619
-0.00432287
-0.00424286
-0.00465484
-0.00486732
-0.00502219
-0.00547749
-0.00567876
-0.00572844
-0.00585422
-0.00579823
0.00015499
7.95637e-06
-0.000827235
-0.00161828
-0.00122825
-0.00162557
-0.00205595
-0.00288172
-0.00308413
-0.00365486
-0.00433999
-0.00427815
-0.00466777
-0.00497257
-0.00516017
-0.00563971
-0.00594297
-0.00606133
-0.00622226
-0.00620997
0.000155748
2.317e-05
-0.000823477
-0.00161698
-0.00124357
-0.00162786
-0.00207524
-0.00288107
-0.00311226
-0.00364648
-0.00435734
-0.00432598
-0.0046887
-0.00507785
-0.00531367
-0.00581127
-0.006204
-0.00639896
-0.0065958
-0.00661704
0.000154184
4.25003e-05
-0.000817356
-0.00161739
-0.00125776
-0.0016328
-0.00209457
-0.0028807
-0.00314355
-0.00364391
-0.00437588
-0.00438575
-0.00471748
-0.00517793
-0.00547801
-0.00599416
-0.00646396
-0.00673848
-0.00697274
-0.00701785
0.00015011
6.56944e-05
-0.000807339
-0.00162018
-0.00127076
-0.00164021
-0.00211587
-0.00288045
-0.00317976
-0.00364895
-0.0043941
-0.00445483
-0.0047555
-0.00527191
-0.00564786
-0.00618855
-0.00672554
-0.00707928
-0.007351
-0.00741136
0.000143363
9.24558e-05
-0.000791828
-0.00162581
-0.00128292
-0.00164958
-0.00214173
-0.00288126
-0.00322111
-0.00366238
-0.00440813
-0.00452926
-0.00480496
-0.00536204
-0.00581898
-0.00639316
-0.00699133
-0.00742146
-0.00772897
-0.00779665
0.000134103
0.000122012
-0.000769583
-0.00163441
-0.00129524
-0.00166038
-0.00217452
-0.00288511
-0.00326583
-0.00368451
-0.00441778
-0.00460435
-0.00486754
-0.00545189
-0.005989
-0.00660625
-0.00726225
-0.00776419
-0.00810503
-0.00817298
0.0001227
0.000153071
-0.000739448
-0.00164526
-0.00130947
-0.00167249
-0.00221592
-0.00289326
-0.00331034
-0.00371536
-0.0044248
-0.00467619
-0.00494304
-0.00554605
-0.00615738
-0.00682514
-0.00753697
-0.00810574
-0.00847801
-0.00854065
0.000109543
0.000184433
-0.000700482
-0.00165701
-0.00132762
-0.00168624
-0.00226659
-0.00290612
-0.00335151
-0.00375475
-0.00443261
-0.00474239
-0.00502902
-0.00564845
-0.00632532
-0.00704667
-0.0078126
-0.00844432
-0.00884767
-0.00890131
9.5168e-05
0.00021501
-0.000652939
-0.00166889
-0.00135155
-0.00170179
-0.00232592
-0.00292442
-0.00338697
-0.0038016
-0.00444556
-0.00480243
-0.00512179
-0.00576056
-0.00649505
-0.00726857
-0.00808582
-0.00877791
-0.00921399
-0.0092571
8.03677e-05
0.000243583
-0.00059795
-0.00167994
-0.00138273
-0.00171833
-0.00239213
-0.00295026
-0.00341549
-0.00385361
-0.00446792
-0.00485803
-0.00521677
-0.00588098
-0.00666871
-0.00749061
-0.00835419
-0.00910391
-0.00957585
-0.00960941
6.61445e-05
0.000268993
-0.00053708
-0.00168927
-0.00142233
-0.00173516
-0.00246283
-0.00298631
-0.00343752
-0.00390728
-0.00450284
-0.0049127
-0.0053101
-0.00600684
-0.00684723
-0.00771441
-0.00861699
-0.00941941
-0.00993029
-0.00995789
5.34988e-05
0.000290305
-0.000472368
-0.00169619
-0.00147111
-0.0017507
-0.00253495
-0.00303454
-0.00345511
-0.00395811
-0.00455081
-0.00497083
-0.00540021
-0.00613447
-0.00702971
-0.0079415
-0.00887512
-0.00972204
-0.0102729
-0.0103002
4.32479e-05
0.000306774
-0.000406009
-0.00170012
-0.00152946
-0.00176634
-0.00260499
-0.00309598
-0.00347178
-0.00400189
-0.00460902
-0.00503702
-0.00548816
-0.00626018
-0.00721365
-0.00817219
-0.00913045
-0.0100108
-0.0105992
-0.0106325
3.59592e-05
0.000318068
-0.000339754
-0.00170056
-0.00159861
-0.00178363
-0.00266873
-0.00316996
-0.0034922
-0.00403622
-0.00467299
-0.00511425
-0.00557703
-0.00638136
-0.00739554
-0.0084054
-0.00938469
-0.0102861
-0.0109058
-0.0109503
3.21525e-05
0.000324036
-0.000275276
-0.00169712
-0.00167999
-0.00180509
-0.00272177
-0.00325386
-0.00352143
-0.00406131
-0.00473732
-0.00520257
-0.00567066
-0.00649733
-0.00757136
-0.00863821
-0.00963844
-0.0105497
-0.0111911
-0.0112495
3.23218e-05
0.000324459
-0.00021464
-0.00168938
-0.00177392
-0.00183411
-0.00276099
-0.00334365
-0.00356419
-0.00407988
-0.00479635
-0.0052994
-0.00577219
-0.00660924
-0.0077375
-0.00886619
-0.00989121
-0.0108044
-0.0114562
-0.0115269
3.68724e-05
0.000319391
-0.000160343
-0.00167638
-0.00187964
-0.00187512
-0.00278546
-0.00343349
-0.00362326
-0.00409652
-0.00484577
-0.00540064
-0.00588318
-0.00671937
-0.00789139
-0.00908432
-0.0101414
-0.0110533
-0.0117038
-0.0117809
4.59158e-05
0.000308195
-0.000115233
-0.00165717
-0.0019959
-0.00193278
-0.00279688
-0.00351613
-0.0036983
-0.00411675
-0.00488404
-0.0055009
-0.00600304
-0.00683002
-0.00803139
-0.0092875
-0.0103858
-0.0112982
-0.0119374
-0.0120114
5.90383e-05
0.000290986
-8.19328e-05
-0.00163176
-0.00211936
-0.00201071
-0.00279963
-0.00358476
-0.00378556
-0.00414629
-0.0049128
-0.00559464
-0.00612895
-0.00694278
-0.0081574
-0.00947108
-0.0106193
-0.0115389
-0.0121608
-0.012221
7.58132e-05
0.000267992
-6.32961e-05
-0.00160052
-0.00224075
-0.00211087
-0.00280047
-0.00363488
-0.00387899
-0.0041892
-0.00493597
-0.0056776
-0.0062565
-0.00705843
-0.00827093
-0.00963168
-0.0108356
-0.0117722
-0.0123761
-0.0124132
9.55843e-05
0.000239793
-6.20366e-05
-0.00156432
-0.00235204
-0.00223337
-0.00280732
-0.00366529
-0.00397125
-0.004246
-0.00495801
-0.00574782
-0.0063809
-0.00717712
-0.00837484
-0.00976778
-0.0110276
-0.0119917
-0.0125825
-0.0125914
0.000116622
0.000207094
-7.86972e-05
-0.00152618
-0.00245165
-0.00237566
-0.00282876
-0.00367908
-0.00405497
-0.00431355
-0.00498237
-0.00580491
-0.00649724
-0.00729743
-0.00847205
-0.00988004
-0.0111902
-0.0121901
-0.0127765
-0.0127567
0.000136463
0.000170328
-0.000112962
-0.00148985
-0.00253935
-0.00253298
-0.00287236
-0.00368207
-0.00412426
-0.00438671
-0.0050103
-0.00584913
-0.00660031
-0.00741538
-0.00856415
-0.00997109
-0.0113212
-0.0123613
-0.0129531
-0.0129083
0.000152794
0.000130024
-0.000164598
-0.00145936
-0.00260524
-0.00269903
-0.00294205
-0.00368126
-0.00417611
-0.00445921
-0.0050416
-0.00588144
-0.00668549
-0.0075247
-0.00865018
-0.0100438
-0.0114208
-0.012501
-0.0131069
-0.0130438
0.000163614
8.70376e-05
-0.00023271
-0.0014408
-0.00265288
-0.00286554
-0.00303755
-0.00368486
-0.00421118
-0.00452494
-0.00507456
-0.00590284
-0.00674911
-0.00761808
-0.00872639
-0.010099
-0.0114895
-0.0126062
-0.0132328
-0.0131595
0.000169604
4.1284e-05
-0.000315531
-0.00143991
-0.00268629
-0.00302357
-0.00315484
-0.00370075
-0.00423315
-0.00457927
-0.00510547
-0.00591331
-0.00678844
-0.00768843
-0.0087866
-0.0101343
-0.011527
-0.012673
-0.0133253
-0.0132509
0.000162755
-8.0559e-06
-0.000410559
-0.00146007
-0.00271096
-0.0031666
-0.00328764
-0.00373367
-0.0042468
-0.00461991
-0.00513002
-0.00591189
-0.00680203
-0.00772982
-0.00882334
-0.0101453
-0.0115315
-0.012698
-0.0133783
-0.0133115
0.000143375
-6.20248e-05
-0.000515573
-0.00150305
-0.00273364
-0.00329242
-0.00342916
-0.00378443
-0.00425692
-0.00464603
-0.00514434
-0.00589687
-0.00678898
-0.00773751
-0.00882908
-0.0101261
-0.0114985
-0.0126778
-0.0133845
-0.0133342
0.000109237
-0.000122729
-0.000628319
-0.00156915
-0.00276129
-0.00340229
-0.00357258
-0.00385139
-0.00426751
-0.00465731
-0.00514493
-0.00586605
-0.00674757
-0.007707
-0.00879608
-0.0100689
-0.0114218
-0.0126081
-0.0133391
-0.0133104
5.83441e-05
-0.000193013
-0.000747509
-0.00165721
-0.00280058
-0.00350008
-0.00371244
-0.00393136
-0.00428127
-0.00465455
-0.00512794
-0.00581617
-0.00667568
-0.00763368
-0.00871615
-0.00996472
-0.0112954
-0.0124829
-0.0132363
-0.0132342
-1.11328e-05
-0.000275336
-0.000873836
-0.00176563
-0.00285622
-0.00359072
-0.00384623
-0.00402044
-0.00429939
-0.00463914
-0.00509001
-0.00574218
-0.00657026
-0.00751331
-0.00858099
-0.00980338
-0.0111097
-0.012294
-0.0130677
-0.0130964
-0.000101025
-0.000372808
-0.00100828
-0.00189275
-0.00293107
-0.00367949
-0.00397339
-0.00411523
-0.00432264
-0.00461288
-0.0050293
-0.00563876
-0.00642594
-0.00734013
-0.00838155
-0.00957217
-0.0108504
-0.0120278
-0.012821
-0.0128839
-0.000213365
-0.000488565
-0.00115284
-0.00203684
-0.00302707
-0.00377163
-0.00409448
-0.00421318
-0.00435163
-0.00457882
-0.00494516
-0.00550144
-0.0062357
-0.00710533
-0.00810666
-0.00925542
-0.0104982
-0.0116639
-0.0124774
-0.0125843
-0.000350388
-0.000625696
-0.00131041
-0.00219712
-0.00314488
-0.00387224
-0.00421167
-0.00431281
-0.00438701
-0.00454123
-0.00483964
-0.00532698
-0.00599161
-0.00679749
-0.00774078
-0.0088328
-0.0100281
-0.0111721
-0.0120012
-0.0121499
-0.000514581
-0.000787329
-0.00148417
-0.0023736
-0.00328467
-0.00398497
-0.00432848
-0.00441434
-0.00443082
-0.00450603
-0.00471951
-0.00511593
-0.00568641
-0.00640199
-0.00726181
-0.00827366
-0.00940388
-0.010514
-0.0113468
-0.0115446
-0.000710687
-0.000976995
-0.0016771
-0.00256635
-0.00344616
-0.00411227
-0.00444813
-0.00451971
-0.00448646
-0.00448176
-0.00459823
-0.00487807
-0.00531894
-0.00590512
-0.00663993
-0.00753352
-0.00856316
-0.00961529
-0.0104523
-0.0107168
-0.000941698
-0.00119938
-0.00189213
-0.00277656
-0.00362838
-0.00425614
-0.00457332
-0.00463177
-0.0045576
-0.0044774
-0.00449341
-0.00464177
-0.00490497
-0.00529256
-0.00583147
-0.00655044
-0.00742351
-0.00838055
-0.00921384
-0.00957806
-0.00120831
-0.00145855
-0.0021331
-0.00300888
-0.00383142
-0.00441771
-0.00470761
-0.00475213
-0.00464985
-0.0045009
-0.0044142
-0.00443493
-0.00451238
-0.00460471
-0.00480539
-0.00519424
-0.00580905
-0.00658304
-0.0074036
-0.00796437
-0.00151274
-0.00175119
-0.0024121
-0.00326796
-0.00405586
-0.0045963
-0.00485347
-0.00488417
-0.00476741
-0.00456823
-0.00436636
-0.00426065
-0.00423055
-0.00409237
-0.00372431
-0.00323691
-0.00291824
-0.00302796
-0.00358816
-0.00437599
-0.00186359
-0.0020825
-0.00273264
-0.00355637
-0.00429797
-0.00478788
-0.005009
-0.00502745
-0.00491461
-0.00470332
-0.004397
-0.00404955
-0.00386607
-0.0040034
-0.00391334
-0.00294329
-0.00123812
0.000411878
0.00154662
0.00209617
-0.00227853
-0.00247856
-0.00309039
-0.00386373
-0.00454508
-0.00498136
-0.00516772
-0.00517639
-0.00505496
-0.00487563
-0.00464282
-0.00397107
-0.00267635
-0.00125489
-1.52248e-05
0.00106789
0.00215663
0.00323923
0.00409327
0.00433339
-0.00276356
-0.00294608
-0.00349465
-0.00418688
-0.0047757
-0.00515063
-0.00530594
-0.00531124
-0.00513105
-0.0043687
-0.00307687
-0.00176082
-0.000667452
0.000215773
0.00105103
0.00198538
0.00304349
0.0040937
0.0048684
0.00499201
-0.003328
-0.00348137
-0.00396096
-0.00452824
-0.00496291
-0.00521398
-0.00530323
-0.0048946
-0.00399203
-0.0029636
-0.00201176
-0.00117817
-0.000380474
0.000516414
0.00156174
0.00273279
0.00394171
0.00503807
0.00578719
0.00583728
-0.00401063
-0.00410276
-0.00444181
-0.00485111
-0.00508839
-0.00488226
-0.00440228
-0.00382164
-0.00321352
-0.00257768
-0.00186806
-0.00102709
-3.72975e-05
0.00107973
0.0023028
0.00358593
0.00484392
0.00593391
0.00662494
0.00657907
-0.00482443
-0.0049135
-0.00485297
-0.00469776
-0.00449044
-0.00419259
-0.00383328
-0.00345175
-0.00299249
-0.00238945
-0.00160135
-0.000632489
0.000478647
0.00169315
0.00298087
0.0043
0.00556481
0.00662393
0.00724999
0.00711163
-0.00556534
-0.00553567
-0.00508951
-0.00455798
-0.00412813
-0.00381768
-0.00352617
-0.00317529
-0.00269804
-0.00204271
-0.00119629
-0.000180788
0.000967669
0.00221657
0.00352759
0.00484655
0.00608593
0.00710065
0.00766662
0.00745684
-0.00613528
-0.00597092
-0.0053441
-0.00459421
-0.00397737
-0.00354748
-0.00320771
-0.00282768
-0.00232549
-0.0016571
-0.00080685
0.000213902
0.0013739
0.00263362
0.00394845
0.00525959
0.00647649
0.00745526
0.00797543
0.0077141
-0.00657723
-0.00633463
-0.00560611
-0.0046999
-0.0039011
-0.00332063
-0.00289257
-0.00248083
-0.0019778
-0.00131921
-0.000479947
0.000534754
0.00169611
0.00296251
0.00428217
0.00558898
0.00678885
0.00773907
0.00822306
0.00792211
-0.00693402
-0.00663421
-0.00582389
-0.00479849
-0.0038579
-0.00314914
-0.00263503
-0.00218733
-0.00168055
-0.00103395
-0.000211088
0.000791815
0.00195187
0.00322261
0.00454531
0.00584829
0.00703495
0.00796353
0.0084204
0.00809027
-0.00720571
-0.00686919
-0.00599029
-0.00488373
-0.00384857
-0.0030449
-0.00245778
-0.00196744
-0.00144228
-0.000789411
3.40595e-05
0.00103344
0.00218585
0.00344902
0.00476533
0.0060602
0.00723487
0.00814712
0.00858456
0.00823372
-0.00737658
-0.00702595
-0.00611415
-0.00496514
-0.00388314
-0.00303139
-0.00239861
-0.00187172
-0.00132156
-0.000651624
0.00018843
0.00120413
0.00236917
0.00363729
0.00494979
0.00623517
0.00739811
0.0082985
0.00872601
0.00836766
0.00833256
0.00326108
-0.00414118
-0.00926241
-0.0102912
-0.00905753
-0.00759601
-0.00657725
-0.00597861
-0.00565819
-0.00551393
-0.0054788
-0.00551074
-0.0055899
-0.00570365
-0.00583472
-0.00596709
-0.006095
-0.00622002
-0.00634329
-0.00646355
-0.00657977
-0.00669212
-0.00680131
-0.0069082
-0.00701379
-0.00711879
-0.00722371
-0.0073292
-0.00743584
-0.00754371
-0.00765259
-0.00776252
-0.00787383
-0.00798667
-0.00810053
-0.0082144
-0.00832756
-0.00844004
-0.00855206
-0.00866334
-0.00877292
-0.00888008
-0.00898483
-0.00908775
-0.0091891
-0.00928861
-0.00938583
-0.00948082
-0.00957401
-0.00966586
-0.00975648
-0.00984591
-0.00993412
-0.0100212
-0.0101073
-0.0101928
-0.0102778
-0.0103625
-0.0104468
-0.0105311
-0.0106151
-0.0106988
-0.0107823
-0.0108658
-0.0109494
-0.0110329
-0.0111163
-0.0111996
-0.0112828
-0.0113663
-0.0114501
-0.0115343
-0.0116187
-0.0117033
-0.011788
-0.0118726
-0.0119572
-0.0120414
-0.0121251
-0.0122085
-0.0122916
-0.0123747
-0.0124579
-0.0125413
-0.0126249
-0.012709
-0.0127936
-0.0128783
-0.012963
-0.0130477
-0.0131326
-0.0132178
-0.0133036
-0.01339
-0.0134771
-0.0135649
-0.0136535
-0.0137427
-0.0138323
-0.0139221
-0.0140124
-0.0141031
-0.0141945
-0.0142866
-0.0143793
-0.0144726
-0.0145665
-0.0146608
-0.0147555
-0.0148505
-0.0149457
-0.0150414
-0.0151375
-0.0152343
-0.0153314
-0.0154291
-0.0155268
-0.0156251
-0.0157234
-0.0158223
-0.0159213
-0.0160209
-0.016121
-0.0162216
-0.0163226
-0.0164238
-0.0165253
-0.0166268
-0.016729
-0.0168316
-0.0169349
-0.0170385
-0.0171422
-0.0172463
-0.0173504
-0.0174552
-0.0175603
-0.0176662
-0.0177718
-0.0178778
-0.017984
-0.0180908
-0.0181976
-0.0183043
-0.0184118
-0.0185191
-0.0186272
-0.0187343
-0.0188426
-0.0189502
-0.0190584
-0.019166
-0.0192741
-0.0193824
-0.0194903
-0.0195989
-0.0197059
-0.0198138
-0.019921
-0.0200309
-0.020139
-0.0202456
-0.0203517
-0.0204601
-0.0205707
-0.0206778
-0.0207834
-0.0208891
-0.0209991
-0.0211088
-0.0212148
-0.0213207
-0.0214273
-0.0215387
-0.0216464
-0.0217533
-0.0218596
-0.0219681
-0.0220798
-0.0221857
-0.0222943
-0.0224009
-0.0225129
-0.0226211
-0.0227283
-0.0228382
-0.0229465
-0.0230583
-0.0231642
-0.0232754
-0.0233845
-0.0234913
-0.0236038
-0.0237058
-0.0238152
-0.0239185
-0.0240136
-0.0241057
-0.0241918
0.00760835
0.0030902
-0.00405976
-0.00912966
-0.0102136
-0.00902052
-0.00757281
-0.00656102
-0.00596695
-0.00564929
-0.0055067
-0.00547265
-0.00550534
-0.00558506
-0.00569926
-0.00583073
-0.00596345
-0.00609165
-0.00621694
-0.00634045
-0.00646093
-0.00657735
-0.00668988
-0.00679923
-0.00690626
-0.00701198
-0.00711709
-0.00722212
-0.0073277
-0.00743441
-0.00754235
-0.00765131
-0.00776129
-0.00787265
-0.00798555
-0.00809946
-0.00821337
-0.00832658
-0.00843909
-0.00855115
-0.00866247
-0.00877209
-0.00887928
-0.00898407
-0.00908702
-0.0091884
-0.00928793
-0.00938518
-0.0094802
-0.00957342
-0.00966529
-0.00975593
-0.00984538
-0.00993361
-0.0100207
-0.0101069
-0.0101924
-0.0102774
-0.010362
-0.0104464
-0.0105307
-0.0106147
-0.0106985
-0.010782
-0.0108655
-0.010949
-0.0110326
-0.011116
-0.0111992
-0.0112825
-0.011366
-0.0114498
-0.011534
-0.0116184
-0.011703
-0.0117877
-0.0118724
-0.0119569
-0.0120411
-0.0121249
-0.0122083
-0.0122914
-0.0123745
-0.0124577
-0.0125411
-0.0126247
-0.0127088
-0.0127934
-0.0128781
-0.0129628
-0.0130475
-0.0131324
-0.0132176
-0.0133035
-0.0133898
-0.0134769
-0.0135647
-0.0136534
-0.0137426
-0.0138322
-0.013922
-0.0140123
-0.0141029
-0.0141944
-0.0142864
-0.0143792
-0.0144725
-0.0145664
-0.0146607
-0.0147554
-0.0148504
-0.0149456
-0.0150413
-0.0151374
-0.0152342
-0.0153313
-0.015429
-0.0155267
-0.015625
-0.0157234
-0.0158222
-0.0159212
-0.0160208
-0.0161209
-0.0162215
-0.0163225
-0.0164237
-0.0165252
-0.0166267
-0.0167289
-0.0168315
-0.0169348
-0.0170384
-0.0171422
-0.0172462
-0.0173503
-0.0174551
-0.0175602
-0.0176661
-0.0177717
-0.0178778
-0.0179839
-0.0180907
-0.0181976
-0.0183043
-0.0184117
-0.0185191
-0.0186271
-0.0187343
-0.0188426
-0.0189501
-0.0190584
-0.0191659
-0.0192741
-0.0193823
-0.0194902
-0.0195989
-0.0197059
-0.0198137
-0.019921
-0.0200309
-0.020139
-0.0202456
-0.0203517
-0.0204601
-0.0205706
-0.0206778
-0.0207834
-0.020889
-0.0209991
-0.0211088
-0.0212148
-0.0213206
-0.0214273
-0.0215387
-0.0216464
-0.0217533
-0.0218596
-0.0219681
-0.0220798
-0.0221857
-0.0222942
-0.0224009
-0.0225129
-0.022621
-0.0227283
-0.0228382
-0.0229465
-0.0230583
-0.0231642
-0.0232754
-0.0233845
-0.0234913
-0.0236037
-0.0237058
-0.0238152
-0.0239185
-0.0240136
-0.0241057
-0.0241918
0.00684797
0.00292132
-0.00388293
-0.00887906
-0.0100732
-0.00896423
-0.00754161
-0.00653732
-0.00594874
-0.00563559
-0.00549626
-0.00546446
-0.00549868
-0.00557944
-0.00569438
-0.00582638
-0.00595951
-0.00608806
-0.00621365
-0.00633743
-0.00645815
-0.00657479
-0.00668751
-0.00679704
-0.00690424
-0.0070101
-0.00711535
-0.00722049
-0.00732617
-0.00743298
-0.007541
-0.00765002
-0.00776008
-0.00787149
-0.00798444
-0.0080984
-0.00821236
-0.00832561
-0.00843817
-0.00855027
-0.00866162
-0.00877127
-0.0088785
-0.00898332
-0.0090863
-0.00918771
-0.00928728
-0.00938455
-0.00947959
-0.00957284
-0.00966473
-0.00975539
-0.00984487
-0.00993311
-0.0100202
-0.0101064
-0.0101919
-0.010277
-0.0103616
-0.010446
-0.0105303
-0.0106144
-0.0106981
-0.0107816
-0.0108651
-0.0109487
-0.0110323
-0.0111157
-0.0111989
-0.0112822
-0.0113657
-0.0114496
-0.0115337
-0.0116182
-0.0117028
-0.0117875
-0.0118722
-0.0119567
-0.0120409
-0.0121247
-0.0122081
-0.0122912
-0.0123743
-0.0124575
-0.0125409
-0.0126245
-0.0127087
-0.0127932
-0.012878
-0.0129627
-0.0130473
-0.0131322
-0.0132175
-0.0133033
-0.0133897
-0.0134768
-0.0135646
-0.0136532
-0.0137424
-0.0138321
-0.0139218
-0.0140121
-0.0141028
-0.0141943
-0.0142863
-0.0143791
-0.0144724
-0.0145663
-0.0146606
-0.0147553
-0.0148503
-0.0149455
-0.0150412
-0.0151373
-0.0152341
-0.0153312
-0.0154289
-0.0155266
-0.0156249
-0.0157233
-0.0158221
-0.0159211
-0.0160207
-0.0161208
-0.0162214
-0.0163224
-0.0164236
-0.0165251
-0.0166266
-0.0167288
-0.0168314
-0.0169347
-0.0170383
-0.0171421
-0.0172461
-0.0173503
-0.0174551
-0.0175602
-0.0176661
-0.0177717
-0.0178777
-0.0179839
-0.0180907
-0.0181975
-0.0183042
-0.0184117
-0.018519
-0.0186271
-0.0187342
-0.0188426
-0.0189501
-0.0190583
-0.0191659
-0.0192741
-0.0193823
-0.0194902
-0.0195988
-0.0197059
-0.0198137
-0.019921
-0.0200308
-0.0201389
-0.0202456
-0.0203516
-0.02046
-0.0205706
-0.0206778
-0.0207834
-0.020889
-0.0209991
-0.0211088
-0.0212147
-0.0213206
-0.0214273
-0.0215387
-0.0216464
-0.0217533
-0.0218596
-0.0219681
-0.0220798
-0.0221857
-0.0222942
-0.0224009
-0.0225129
-0.022621
-0.0227283
-0.0228382
-0.0229465
-0.0230582
-0.0231642
-0.0232754
-0.0233845
-0.0234913
-0.0236037
-0.0237058
-0.0238152
-0.0239185
-0.0240136
-0.0241056
-0.0241918
0.00612449
0.00277314
-0.00363798
-0.00854676
-0.00987678
-0.00888329
-0.00749618
-0.00650086
-0.00591981
-0.00561406
-0.00548046
-0.00545265
-0.0054896
-0.00557219
-0.0056883
-0.00582105
-0.00595472
-0.00608372
-0.0062097
-0.00633381
-0.00645482
-0.00657171
-0.00668467
-0.00679443
-0.00690185
-0.00700791
-0.00711334
-0.00721864
-0.00732446
-0.00743139
-0.00753952
-0.00764864
-0.00775878
-0.00787027
-0.00798328
-0.00809729
-0.0082113
-0.0083246
-0.0084372
-0.00854934
-0.00866073
-0.00877042
-0.00887769
-0.00898254
-0.00908556
-0.009187
-0.00928659
-0.00938389
-0.00947896
-0.00957223
-0.00966415
-0.00975483
-0.00984433
-0.0099326
-0.0100197
-0.0101059
-0.0101915
-0.0102765
-0.0103612
-0.0104456
-0.0105299
-0.010614
-0.0106977
-0.0107813
-0.0108648
-0.0109484
-0.011032
-0.0111154
-0.0111986
-0.0112819
-0.0113654
-0.0114493
-0.0115335
-0.0116179
-0.0117025
-0.0117872
-0.0118719
-0.0119565
-0.0120407
-0.0121245
-0.0122079
-0.012291
-0.0123741
-0.0124573
-0.0125407
-0.0126243
-0.0127085
-0.012793
-0.0128778
-0.0129625
-0.0130472
-0.013132
-0.0132173
-0.0133031
-0.0133895
-0.0134766
-0.0135644
-0.0136531
-0.0137423
-0.0138319
-0.0139217
-0.014012
-0.0141027
-0.0141942
-0.0142862
-0.0143789
-0.0144722
-0.0145662
-0.0146605
-0.0147552
-0.0148502
-0.0149454
-0.0150411
-0.0151372
-0.015234
-0.0153311
-0.0154288
-0.0155265
-0.0156248
-0.0157232
-0.015822
-0.015921
-0.0160206
-0.0161207
-0.0162213
-0.0163223
-0.0164235
-0.016525
-0.0166266
-0.0167287
-0.0168314
-0.0169347
-0.0170383
-0.017142
-0.0172461
-0.0173502
-0.017455
-0.0175601
-0.017666
-0.0177716
-0.0178776
-0.0179838
-0.0180906
-0.0181975
-0.0183042
-0.0184116
-0.018519
-0.018627
-0.0187342
-0.0188425
-0.01895
-0.0190583
-0.0191658
-0.019274
-0.0193823
-0.0194902
-0.0195988
-0.0197058
-0.0198137
-0.0199209
-0.0200308
-0.0201389
-0.0202455
-0.0203516
-0.02046
-0.0205706
-0.0206777
-0.0207834
-0.020889
-0.020999
-0.0211088
-0.0212147
-0.0213206
-0.0214273
-0.0215387
-0.0216463
-0.0217533
-0.0218596
-0.0219681
-0.0220798
-0.0221857
-0.0222942
-0.0224009
-0.0225129
-0.022621
-0.0227283
-0.0228382
-0.0229465
-0.0230582
-0.0231642
-0.0232754
-0.0233845
-0.0234913
-0.0236037
-0.0237058
-0.0238152
-0.0239185
-0.0240136
-0.0241056
-0.0241918
0.00542825
0.00261396
-0.00337451
-0.00818413
-0.0096548
-0.00879036
-0.00744299
-0.00645476
-0.00588082
-0.00558407
-0.00545816
-0.00543598
-0.00547693
-0.00556228
-0.00568015
-0.00581399
-0.0059484
-0.00607801
-0.00620452
-0.00632905
-0.00645041
-0.0065676
-0.00668086
-0.00679093
-0.00689865
-0.007005
-0.0071107
-0.00721625
-0.00732228
-0.00742939
-0.00753768
-0.00764694
-0.00775721
-0.0078688
-0.0079819
-0.00809598
-0.00821006
-0.00832342
-0.00843608
-0.00854826
-0.00865969
-0.00876942
-0.00887673
-0.00898162
-0.00908468
-0.00918616
-0.00928578
-0.00938312
-0.00947821
-0.00957152
-0.00966347
-0.00975419
-0.00984371
-0.009932
-0.0100191
-0.0101054
-0.0101909
-0.010276
-0.0103607
-0.0104452
-0.0105295
-0.0106136
-0.0106973
-0.0107809
-0.0108644
-0.010948
-0.0110316
-0.011115
-0.0111983
-0.0112816
-0.0113651
-0.011449
-0.0115332
-0.0116176
-0.0117022
-0.011787
-0.0118717
-0.0119562
-0.0120404
-0.0121242
-0.0122076
-0.0122908
-0.0123739
-0.0124571
-0.0125405
-0.0126241
-0.0127083
-0.0127928
-0.0128776
-0.0129623
-0.013047
-0.0131319
-0.0132171
-0.013303
-0.0133893
-0.0134764
-0.0135642
-0.0136529
-0.0137421
-0.0138318
-0.0139215
-0.0140118
-0.0141025
-0.014194
-0.014286
-0.0143788
-0.0144721
-0.014566
-0.0146604
-0.0147551
-0.0148501
-0.0149453
-0.015041
-0.0151371