/*--------------------------------*- C++ -*----------------------------------*\
| =========                 |                                                 |
| \\      /  F ield         | OpenFOAM: The Open Source CFD Toolbox           |
|  \\    /   O peration     | Version:  v2012                                 |
|   \\  /    A nd           | Website:  www.openfoam.com                      |
|    \\/     M anipulation  |                                                 |
\*---------------------------------------------------------------------------*/
FoamFile
{
    version     2.0;
    format      ascii;
    class       volScalarField;
    location    "1.6";
    object      p;
}
// * * * * * * * * * * * * * * * * * * * * * * * * * * * * * * * * * * * * * //

dimensions      [0 2 -2 0 0 0 0];


internalField   nonuniform List<scalar> 
17600
(
-3.1367e-10
0.000652504
-0.000215145
-9.19962e-05
-0.000580221
-0.00108161
-0.00190795
-0.0022721
-0.00269389
-0.00303234
-0.00348019
-0.00369466
-0.00408434
-0.00397826
-0.00383839
-0.00312467
-0.00238954
-0.000685179
0.00114937
0.00490666
1.06076e-06
0.00065211
-0.000214017
-9.88213e-05
-0.000578986
-0.00108504
-0.00190623
-0.0022745
-0.00268873
-0.00303484
-0.0034741
-0.00369849
-0.00407425
-0.00398457
-0.00383062
-0.00313919
-0.00237919
-0.000756164
0.00116375
0.00460268
2.98632e-06
0.000651366
-0.000213003
-0.00010644
-0.000576806
-0.00108943
-0.001904
-0.00227788
-0.00268573
-0.0030384
-0.00346813
-0.00370479
-0.00406664
-0.00399407
-0.00382213
-0.00315935
-0.00236824
-0.000824521
0.00116216
0.00418332
5.88908e-06
0.000650789
-0.000212585
-0.000113812
-0.000574367
-0.0010942
-0.00190214
-0.0022813
-0.00268313
-0.00304203
-0.00346263
-0.0037118
-0.00405952
-0.00400444
-0.003814
-0.00318116
-0.00235847
-0.000893146
0.00112944
0.00377505
1.02406e-05
0.000650343
-0.00021288
-0.000121208
-0.000571729
-0.00109948
-0.00190058
-0.0022848
-0.00268047
-0.00304588
-0.00345697
-0.00371928
-0.00405201
-0.00401583
-0.00380533
-0.0032049
-0.00235052
-0.00096496
0.00106527
0.00338854
1.62155e-05
0.000649725
-0.000213963
-0.000128797
-0.000568914
-0.00110534
-0.0018992
-0.00228853
-0.00267768
-0.00305
-0.00345086
-0.00372725
-0.00404409
-0.00402826
-0.00379637
-0.00323062
-0.00234581
-0.00104043
0.00097126
0.00302601
2.36234e-05
0.000648693
-0.000215759
-0.000136663
-0.000565987
-0.00111174
-0.00189787
-0.00229254
-0.00267458
-0.00305434
-0.0034443
-0.00373569
-0.00403599
-0.00404159
-0.00378782
-0.00325764
-0.00234637
-0.00111895
0.000849151
0.00268355
3.21177e-05
0.000647176
-0.000218065
-0.000144856
-0.000562945
-0.00111857
-0.00189649
-0.00229681
-0.00267109
-0.00305892
-0.00343736
-0.00374457
-0.00402797
-0.00405564
-0.00378047
-0.00328514
-0.00235436
-0.00119949
0.000700186
0.00235491
4.13875e-05
0.000645229
-0.000220645
-0.000153405
-0.000559734
-0.0011258
-0.00189499
-0.00230139
-0.00266718
-0.00306378
-0.00343009
-0.00375388
-0.00402027
-0.00407016
-0.00377519
-0.00331224
-0.00237186
-0.00128136
0.000526069
0.00203383
5.12386e-05
0.000642955
-0.000223315
-0.000162321
-0.000556301
-0.00113339
-0.00189336
-0.0023063
-0.00266286
-0.00306891
-0.0034226
-0.00376353
-0.00401319
-0.00408478
-0.00377286
-0.00333825
-0.00240058
-0.00136505
0.000329585
0.0017147
6.15885e-05
0.000640438
-0.000225952
-0.000171618
-0.000552615
-0.00114137
-0.0018916
-0.00231155
-0.00265816
-0.00307424
-0.00341501
-0.00377336
-0.00400714
-0.00409897
-0.00377438
-0.0033628
-0.00244169
-0.00145192
0.000114467
0.001393
7.24254e-05
0.000637731
-0.000228483
-0.000181315
-0.00054866
-0.00114973
-0.00188972
-0.00231713
-0.00265311
-0.0030797
-0.00340751
-0.00378308
-0.00400265
-0.00411213
-0.00378055
-0.00338589
-0.00249564
-0.00154447
-0.000115014
0.00106582
8.377e-05
0.000634849
-0.00023086
-0.000191432
-0.000544427
-0.00115848
-0.00188774
-0.00232301
-0.00264777
-0.00308516
-0.00340035
-0.0037923
-0.00400033
-0.00412377
-0.00379194
-0.00340803
-0.00256207
-0.00164594
-0.000354737
0.000731924
9.5652e-05
0.000631788
-0.000233042
-0.000201984
-0.000539909
-0.00116762
-0.00188568
-0.00232913
-0.00264223
-0.00309042
-0.00339387
-0.0038006
-0.00400073
-0.00413351
-0.00380903
-0.00343038
-0.0026396
-0.00175942
-0.000601568
0.000391559
0.000108102
0.000628536
-0.000234988
-0.000212981
-0.000535103
-0.00117714
-0.00188359
-0.00233542
-0.00263663
-0.00309523
-0.00338848
-0.00380754
-0.00400432
-0.00414125
-0.00383228
-0.00345281
-0.00272604
-0.00188719
-0.000853835
4.59917e-05
0.00012115
0.000625081
-0.000236655
-0.000224427
-0.000530011
-0.001187
-0.00188154
-0.00234176
-0.00263118
-0.00309926
-0.00338461
-0.00381273
-0.0040114
-0.00414735
-0.00386165
-0.00348163
-0.00281947
-0.0020308
-0.00111114
-0.00030283
0.000134825
0.000621414
-0.000238004
-0.000236316
-0.000524654
-0.00119715
-0.00187963
-0.00234797
-0.00262612
-0.00310213
-0.00338267
-0.003816
-0.00402209
-0.0041526
-0.00389611
-0.00351763
-0.00291938
-0.00219093
-0.00137393
-0.000652943
0.000149151
0.000617532
-0.000238991
-0.000248633
-0.000519081
-0.00120753
-0.00187801
-0.00235382
-0.00262175
-0.00310355
-0.00338295
-0.00381744
-0.00403637
-0.00415798
-0.00393415
-0.00356253
-0.00302631
-0.00236698
-0.0016433
-0.00100296
0.000164148
0.000613443
-0.000239583
-0.00026135
-0.00051337
-0.001218
-0.00187687
-0.00235906
-0.00261832
-0.00310331
-0.00338559
-0.00381721
-0.00405313
-0.00416491
-0.00397452
-0.00361756
-0.00314105
-0.00255758
-0.00192051
-0.00135207
0.000179831
0.000609178
-0.000239761
-0.000274351
-0.000507629
-0.0012284
-0.00187642
-0.00236347
-0.00261607
-0.00310119
-0.00339051
-0.00381559
-0.00407176
-0.00417512
-0.00401698
-0.0036837
-0.0032649
-0.00276124
-0.00220642
-0.00170026
0.000196199
0.00060479
-0.000239513
-0.000287567
-0.000501999
-0.00123853
-0.00187688
-0.00236681
-0.00261523
-0.00309707
-0.00339745
-0.00381323
-0.00409145
-0.0041898
-0.0040615
-0.0037613
-0.00339953
-0.00297701
-0.00250151
-0.00204843
0.000213239
0.000600365
-0.000238847
-0.000300873
-0.000496671
-0.00124818
-0.00187849
-0.00236887
-0.0026159
-0.00309115
-0.00340579
-0.00381112
-0.00411151
-0.00420963
-0.00410865
-0.00385004
-0.00354651
-0.00320462
-0.00280596
-0.00239823
0.000230922
0.000596036
-0.000237806
-0.00031411
-0.000491836
-0.00125718
-0.00188142
-0.00236947
-0.00261804
-0.00308399
-0.00341481
-0.00381013
-0.00413147
-0.00423515
-0.00415952
-0.00394921
-0.00370708
-0.00344429
-0.00311985
-0.00275169
0.000249189
0.000592001
-0.000236464
-0.000327125
-0.000487648
-0.00126538
-0.00188578
-0.00236868
-0.00262093
-0.00307619
-0.00342383
-0.00381086
-0.00415095
-0.00426648
-0.00421558
-0.00405826
-0.00388199
-0.00369648
-0.0034432
-0.00311093
0.000267944
0.000588508
-0.000234874
-0.000339781
-0.000484273
-0.00127268
-0.00189151
-0.00236682
-0.00262403
-0.00306821
-0.00343241
-0.0038135
-0.00417002
-0.00430345
-0.00427826
-0.004177
-0.00407116
-0.00396148
-0.00377596
-0.00347796
0.000287075
0.000585852
-0.000233079
-0.000351932
-0.000481847
-0.00127915
-0.00189835
-0.00236438
-0.00262694
-0.00306044
-0.00344034
-0.00381787
-0.004189
-0.00434585
-0.00434901
-0.00430604
-0.00427407
-0.0042388
-0.00411799
-0.00385389
0.000306424
0.000584413
-0.000231105
-0.000363509
-0.0004804
-0.00128499
-0.00190583
-0.0023619
-0.00262949
-0.00305298
-0.00344758
-0.00382407
-0.00420813
-0.00439338
-0.00442972
-0.0044469
-0.00449043
-0.00452708
-0.00446731
-0.00423791
0.000325767
0.000584614
-0.000228878
-0.000374577
-0.000479799
-0.0012905
-0.00191486
-0.00235987
-0.00263169
-0.00304547
-0.00345437
-0.00383245
-0.00422881
-0.00444734
-0.00452447
-0.00460047
-0.00471819
-0.00482481
-0.00482324
-0.00462753
0.000344855
0.000586848
-0.000226214
-0.000385288
-0.000479637
-0.00129626
-0.0019223
-0.00235845
-0.00263381
-0.00303761
-0.00346112
-0.0038437
-0.00425469
-0.00451282
-0.00463277
-0.00476363
-0.00495329
-0.0051306
-0.00518606
-0.00501929
0.000363443
0.000591512
-0.000222818
-0.000396006
-0.000479285
-0.00130286
-0.00192951
-0.00235722
-0.00263673
-0.00302993
-0.00346793
-0.00386095
-0.00428959
-0.00459252
-0.00475113
-0.00493333
-0.00519258
-0.00544283
-0.00555578
-0.00541403
0.000381301
0.0005989
-0.000218048
-0.000407427
-0.00047816
-0.00131044
-0.00193689
-0.00235544
-0.00264162
-0.00302335
-0.00347554
-0.0038877
-0.00433361
-0.0046752
-0.00487738
-0.00510919
-0.00543453
-0.00575903
-0.00593105
-0.00581128
0.000398252
0.000609119
-0.000211008
-0.000420209
-0.000476136
-0.00131887
-0.00194571
-0.00235278
-0.00264912
-0.00301991
-0.00348576
-0.00392474
-0.00438431
-0.00475982
-0.00501062
-0.00529225
-0.00567893
-0.00607596
-0.00630796
-0.0062088
0.000414205
0.000622148
-0.000200773
-0.000434665
-0.000473262
-0.0013277
-0.00195788
-0.00234966
-0.0026592
-0.00302279
-0.00349992
-0.00396787
-0.00443998
-0.00484706
-0.0051505
-0.00548364
-0.00592683
-0.00639087
-0.00668124
-0.00660361
0.000429146
0.000637585
-0.000186181
-0.000450765
-0.000470219
-0.00133619
-0.00197512
-0.00234716
-0.00267188
-0.00303374
-0.00351704
-0.00401255
-0.00450067
-0.00493837
-0.00529573
-0.00568273
-0.0061791
-0.00670243
-0.00704699
-0.00699254
0.00044315
0.000654626
-0.000166174
-0.000467934
-0.000468379
-0.0013437
-0.0019984
-0.00234776
-0.00268714
-0.00305278
-0.00353596
-0.00405669
-0.00456659
-0.0050342
-0.00544378
-0.0058875
-0.00643638
-0.00701161
-0.00740395
-0.00737277
0.00045646
0.000672394
-0.000140153
-0.000485004
-0.000469655
-0.00135028
-0.00202795
-0.00235402
-0.00270415
-0.00307787
-0.00355632
-0.00410016
-0.00463763
-0.00513417
-0.00559238
-0.00609557
-0.00669902
-0.00732074
-0.00775289
-0.00774203
0.000469424
0.000690052
-0.000107866
-0.000500624
-0.000475367
-0.00135644
-0.00206399
-0.00236756
-0.00272177
-0.00310673
-0.00357887
-0.00414318
-0.00471334
-0.00523784
-0.0057404
-0.00630469
-0.00696638
-0.00763185
-0.00809556
-0.00809887
0.000482506
0.000706837
-6.99918e-05
-0.000513517
-0.000485828
-0.00136308
-0.00210633
-0.00238918
-0.00273942
-0.00313769
-0.00360482
-0.00418753
-0.00479264
-0.00534577
-0.00588834
-0.00651264
-0.00723618
-0.00794548
-0.00843381
-0.00844323
0.000496305
0.000722164
-2.8057e-05
-0.000522688
-0.000501212
-0.00137102
-0.00215397
-0.00241935
-0.00275697
-0.00316986
-0.00363462
-0.00423215
-0.0048748
-0.0054602
-0.00603806
-0.00671708
-0.00750397
-0.00825971
-0.00876891
-0.00877659
0.000511414
0.000735612
1.5872e-05
-0.000527642
-0.000521598
-0.00138088
-0.00220539
-0.00246026
-0.00277467
-0.00320298
-0.00366834
-0.00427607
-0.00495896
-0.00558323
-0.00619233
-0.00691675
-0.00776406
-0.00857003
-0.00910079
-0.00910142
0.000528381
0.000746976
5.93863e-05
-0.000528404
-0.000546473
-0.00139317
-0.00225856
-0.0025062
-0.00279355
-0.0032362
-0.0037064
-0.00431947
-0.00504278
-0.0057143
-0.00635399
-0.00711308
-0.00801229
-0.00887085
-0.00942771
-0.00941993
0.000547629
0.000756362
0.00010016
-0.000525668
-0.000574944
-0.00140839
-0.00231199
-0.00255904
-0.00281602
-0.00326955
-0.0037492
-0.00436347
-0.00512371
-0.00584992
-0.0065244
-0.00730855
-0.00824778
-0.00915737
-0.00974621
-0.00973284
0.000569343
0.00076415
0.00013673
-0.000521071
-0.000606128
-0.00142658
-0.00236524
-0.00261747
-0.00284183
-0.00330349
-0.00379708
-0.00440962
-0.00519973
-0.00598526
-0.00670251
-0.00750621
-0.00847246
-0.0094265
-0.0100516
-0.0100387
0.000593499
0.000770943
0.000168256
-0.000516873
-0.000639561
-0.00144746
-0.00241817
-0.00268019
-0.0028703
-0.00333766
-0.00385064
-0.00445984
-0.00527005
-0.0061156
-0.0068851
-0.00770844
-0.00868956
-0.00967703
-0.0103391
-0.0103341
0.000619846
0.000777472
0.000193018
-0.00051543
-0.000675482
-0.00147093
-0.00247067
-0.00274659
-0.00290016
-0.00337015
-0.00391021
-0.00451689
-0.00533539
-0.00623659
-0.00706705
-0.00791545
-0.00890241
-0.00990969
-0.0106045
-0.0106143
0.000648
0.000784385
0.000210635
-0.000519053
-0.000714713
-0.00149784
-0.00252221
-0.00281674
-0.00293125
-0.00339862
-0.00397402
-0.00458339
-0.00539819
-0.00634471
-0.00724188
-0.00812488
-0.00911388
-0.0101273
-0.0108462
-0.0108742
0.000677343
0.000792064
0.000221272
-0.000529743
-0.000757934
-0.00152352
-0.00257229
-0.00289081
-0.0029646
-0.00342028
-0.00403757
-0.00466088
-0.00546312
-0.00643897
-0.00740313
-0.00833187
-0.00932518
-0.0103336
-0.0110648
-0.0111099
0.000706956
0.00080049
0.000226745
-0.000549227
-0.000806009
-0.0015493
-0.00262052
-0.00296941
-0.00300193
-0.00343332
-0.00409549
-0.00474779
-0.00553539
-0.00652194
-0.00754603
-0.00852958
-0.00953471
-0.0105319
-0.0112626
-0.0113191
0.000736069
0.000809116
0.000227993
-0.000578425
-0.000860333
-0.00157418
-0.00266522
-0.00305363
-0.00304576
-0.00343804
-0.00414194
-0.0048386
-0.00561783
-0.00659862
-0.00766839
-0.00871065
-0.00973807
-0.0107238
-0.0114433
-0.0115022
0.00076388
0.000817202
0.000224175
-0.000617473
-0.000922523
-0.00159784
-0.00270349
-0.00314336
-0.00309995
-0.00343697
-0.00417185
-0.00492632
-0.00570973
-0.00667444
-0.0077711
-0.0088688
-0.00992859
-0.0109086
-0.0116104
-0.011662
0.000788943
0.000823791
0.000217162
-0.000666224
-0.000994939
-0.00162105
-0.00273196
-0.00323576
-0.00316887
-0.00343485
-0.00418179
-0.00500277
-0.00580706
-0.00675335
-0.00785758
-0.00900019
-0.0100987
-0.0110823
-0.0117659
-0.011802
0.000809566
0.000827802
0.000208055
-0.000723229
-0.00108007
-0.00164629
-0.00274799
-0.00332583
-0.00325519
-0.00343801
-0.00417121
-0.00505917
-0.00590292
-0.00683603
-0.00793184
-0.00910381
-0.0102417
-0.0112389
-0.0119092
-0.0119258
0.000824494
0.000826713
0.000197133
-0.000785581
-0.00117942
-0.00167772
-0.0027504
-0.00340782
-0.0033579
-0.00345403
-0.0041441
-0.00508786
-0.00598794
-0.00691944
-0.00799709
-0.00918134
-0.0103525
-0.011371
-0.0120366
-0.0120347
0.000832764
0.000818275
0.000183587
-0.000849909
-0.00129269
-0.00172068
-0.0027406
-0.00347519
-0.00347176
-0.00348961
-0.00410823
-0.00508434
-0.00605077
-0.0069969
-0.0080548
-0.0092356
-0.0104285
-0.0114709
-0.0121413
-0.0121268
0.000833451
0.000799961
0.000165997
-0.000911178
-0.0014178
-0.00178134
-0.0027231
-0.00352134
-0.00358834
-0.00354775
-0.00407253
-0.00504946
-0.00608048
-0.00705864
-0.00810266
-0.00926791
-0.0104688
-0.0115316
-0.0122145
-0.0121965
0.000825453
0.000769792
0.000142514
-0.000967635
-0.00155129
-0.00186482
-0.00270496
-0.0035418
-0.00369785
-0.00362623
-0.00404609
-0.00498956
-0.00606966
-0.00709285
-0.00813418
-0.00927816
-0.0104738
-0.0115482
-0.0122467
-0.0122345
0.000807518
0.0007269
0.000109563
-0.00101873
-0.00168837
-0.00197255
-0.00269511
-0.00353733
-0.00378981
-0.00371761
-0.00403478
-0.00491234
-0.00601607
-0.00708798
-0.00813958
-0.00926355
-0.0104433
-0.011519
-0.0122311
-0.0122321
0.000778392
0.000670379
6.33293e-05
-0.00106673
-0.00182318
-0.00210211
-0.00270233
-0.00351444
-0.00385498
-0.00381072
-0.00403891
-0.00482535
-0.00592212
-0.00703484
-0.00810683
-0.0092164
-0.0103736
-0.0114426
-0.012164
-0.0121808
0.000736495
0.000599548
6.73668e-07
-0.0011154
-0.00195145
-0.00224881
-0.00273304
-0.00348221
-0.00388946
-0.00389361
-0.0040534
-0.00473397
-0.00579138
-0.00692688
-0.00802308
-0.00912582
-0.01026
-0.0113157
-0.0120424
-0.0120771
0.000679709
0.000514136
-8.13385e-05
-0.00116948
-0.0020712
-0.00240711
-0.0027901
-0.00345038
-0.00389588
-0.0039558
-0.00406912
-0.00463926
-0.00562697
-0.00675998
-0.00787625
-0.00897893
-0.0100935
-0.0111326
-0.0118604
-0.0119134
0.00060556
0.000413264
-0.000184012
-0.00123443
-0.00218277
-0.00257099
-0.00287372
-0.00342806
-0.00387916
-0.00399032
-0.00407552
-0.00453846
-0.00543121
-0.00653247
-0.00765528
-0.00876033
-0.00985969
-0.0108811
-0.0116072
-0.011679
0.000511354
0.000295864
-0.000307848
-0.00131597
-0.00228929
-0.00273484
-0.00298161
-0.00342263
-0.00384635
-0.00399419
-0.0040634
-0.0044263
-0.00520455
-0.0062426
-0.00734962
-0.00845085
-0.00953701
-0.0105418
-0.0112618
-0.0113467
0.000393749
0.000160456
-0.000452568
-0.00141865
-0.00239592
-0.00289575
-0.0031096
-0.00343937
-0.00380658
-0.00396955
-0.00402657
-0.00429571
-0.00494519
-0.00588594
-0.00694746
-0.00802721
-0.00909379
-0.0100785
-0.010789
-0.0108901
0.000248766
4.13605e-06
-0.00061793
-0.00154495
-0.00250864
-0.00305336
-0.00325361
-0.00348203
-0.00377063
-0.00392354
-0.00396313
-0.00414133
-0.00464756
-0.0054567
-0.00643236
-0.00745969
-0.00848651
-0.0094409
-0.0101448
-0.0102735
7.2827e-05
-0.000176462
-0.0008046
-0.00169648
-0.00263367
-0.00320881
-0.00340973
-0.00355311
-0.00375106
-0.00386715
-0.00387866
-0.00396418
-0.00430798
-0.00494515
-0.00577997
-0.00671065
-0.00766828
-0.00857536
-0.00926933
-0.00944163
-0.000137668
-0.000385199
-0.00101392
-0.00187564
-0.00277598
-0.00336493
-0.00357328
-0.00365419
-0.00375978
-0.00381595
-0.0037851
-0.00377672
-0.00393794
-0.00434301
-0.00496148
-0.00572079
-0.00654556
-0.00737416
-0.00806003
-0.00830707
-0.000385794
-0.000626194
-0.00125058
-0.00208437
-0.00293913
-0.00352534
-0.00374166
-0.0037826
-0.00380879
-0.00379116
-0.00369631
-0.00359513
-0.00358426
-0.00369075
-0.00394937
-0.00437913
-0.00495448
-0.00560827
-0.00627036
-0.00667659
-0.000665057
-0.000902493
-0.00152148
-0.00232263
-0.00312591
-0.00369301
-0.00391602
-0.00393237
-0.00390179
-0.00382247
-0.00363686
-0.00341846
-0.00326432
-0.0031465
-0.00294246
-0.00261477
-0.00231175
-0.00225732
-0.00250414
-0.00297821
-0.000983629
-0.00121983
-0.00182986
-0.0025904
-0.00333539
-0.00387237
-0.00409645
-0.00410274
-0.00403445
-0.0039249
-0.00367738
-0.00325401
-0.00283791
-0.00272012
-0.00285853
-0.00259761
-0.00133718
0.000601435
0.00239396
0.00351851
-0.00137752
-0.00158664
-0.00216536
-0.00287964
-0.00356285
-0.00405995
-0.00428292
-0.00429046
-0.00418473
-0.00403068
-0.00385959
-0.00343962
-0.00226759
-0.000683501
0.000769675
0.0019858
0.00316441
0.00438033
0.00543157
0.00588923
-0.00184737
-0.00201534
-0.00253401
-0.00318796
-0.00379842
-0.00424377
-0.0044579
-0.00447021
-0.0043471
-0.00385683
-0.00265371
-0.00115615
0.000235275
0.00138088
0.00237608
0.00333793
0.00435239
0.00537485
0.00618327
0.00638222
-0.00238121
-0.00251394
-0.00294762
-0.00351282
-0.00402836
-0.00438667
-0.00454599
-0.00432884
-0.00347707
-0.00232481
-0.0011734
-0.000144157
0.000809527
0.00179668
0.00287299
0.0040325
0.00521621
0.00629496
0.00704805
0.00713991
-0.0029865
-0.00309271
-0.00341317
-0.0038246
-0.00420416
-0.00433002
-0.00396396
-0.00326971
-0.00243483
-0.00159087
-0.000759368
0.00014078
0.0011607
0.00230181
0.00354296
0.00484085
0.00611053
0.00721205
0.00792678
0.00792265
-0.00366109
-0.00376019
-0.0039124
-0.00401647
-0.00393595
-0.0036548
-0.00319904
-0.00264512
-0.00203059
-0.00131848
-0.00047628
0.00051959
0.00165502
0.00290197
0.00422444
0.00557303
0.00686354
0.00795262
0.0086133
0.00851426
-0.00436733
-0.0044225
-0.00425395
-0.00391745
-0.00354417
-0.00315796
-0.00276371
-0.00229482
-0.00170893
-0.000976575
-7.88993e-05
0.000973047
0.00215765
0.00344712
0.00480254
0.00616348
0.0074371
0.00847974
0.00907151
0.0088889
-0.00500056
-0.00494087
-0.0044746
-0.00386111
-0.0032918
-0.00283307
-0.00241782
-0.00194792
-0.00135343
-0.000600274
0.000316164
0.0013863
0.00259055
0.00389529
0.00525377
0.00660276
0.0078491
0.00885073
0.00939132
0.00915155
-0.00550316
-0.0053247
-0.00468872
-0.00388284
-0.00315488
-0.00258157
-0.002105
-0.00161429
-0.00101614
-0.000263109
0.000657095
0.00173372
0.00294358
0.00425063
0.00560567
0.00694297
0.00816838
0.00914036
0.00964446
0.00936403
-0.00588695
-0.00563089
-0.00488606
-0.00394531
-0.00307149
-0.00238291
-0.00183895
-0.00131977
-0.000720028
2.41594e-05
0.000935722
0.00201052
0.0032212
0.00452886
0.00588109
0.00720981
0.00841987
0.00937024
0.00984801
0.0095387
-0.00617713
-0.00587543
-0.00505257
-0.0040114
-0.00302979
-0.00224661
-0.00163617
-0.00108321
-0.000471842
0.000273103
0.00118158
0.00225175
0.00345922
0.00476272
0.00610795
0.00742655
0.00862338
0.00955793
0.0100178
0.00968918
-0.00636134
-0.0060457
-0.00518102
-0.00408303
-0.00304267
-0.00220546
-0.00155102
-0.000968179
-0.000338166
0.00042327
0.0013507
0.00243836
0.00365425
0.00495505
0.00629003
0.00759702
0.00878303
0.00970882
0.0101622
0.00982857
0.0090407
0.00428227
-0.00288174
-0.00804512
-0.00912999
-0.00779705
-0.00620633
-0.00512076
-0.00452128
-0.0042284
-0.00410786
-0.00408755
-0.00413105
-0.00421479
-0.00431893
-0.004429
-0.00453802
-0.00464306
-0.00474091
-0.00482903
-0.00490838
-0.00498234
-0.005053
-0.00512036
-0.00518462
-0.00524741
-0.00531057
-0.00537482
-0.00543954
-0.00550375
-0.00556746
-0.00563171
-0.00569701
-0.00576244
-0.00582655
-0.00588877
-0.0059495
-0.00600908
-0.00606739
-0.00612429
-0.00617987
-0.00623421
-0.00628723
-0.00633893
-0.00638947
-0.00643913
-0.00648806
-0.00653628
-0.00658384
-0.00663082
-0.00667736
-0.00672374
-0.00677012
-0.00681651
-0.00686281
-0.00690875
-0.00695403
-0.00699862
-0.00704239
-0.00708511
-0.00712626
-0.00716582
-0.0072042
-0.00724199
-0.00727951
-0.007317
-0.00735462
-0.00739246
-0.00743036
-0.00746819
-0.00750555
-0.00754218
-0.00757787
-0.00761273
-0.00764688
-0.00768075
-0.00771472
-0.00774905
-0.00778345
-0.00781749
-0.00785086
-0.00788356
-0.00791559
-0.00794701
-0.00797792
-0.00800851
-0.008039
-0.00806949
-0.00809991
-0.00812992
-0.00815935
-0.00818816
-0.00821654
-0.00824454
-0.00827235
-0.00829999
-0.0083276
-0.00835503
-0.00838202
-0.00840818
-0.00843364
-0.0084588
-0.00848404
-0.0085091
-0.00853372
-0.00855784
-0.00858158
-0.00860494
-0.00862801
-0.00865098
-0.00867392
-0.00869679
-0.00871937
-0.00874162
-0.00876366
-0.00878555
-0.00880723
-0.00882874
-0.00885006
-0.00887097
-0.00889132
-0.00891108
-0.00893066
-0.00894997
-0.00896876
-0.00898657
-0.00900339
-0.00901929
-0.00903464
-0.00904981
-0.00906429
-0.00907748
-0.00908861
-0.00909881
-0.00910856
-0.00911871
-0.00912753
-0.00913456
-0.00913916
-0.00914326
-0.00914777
-0.00915202
-0.0091541
-0.00915356
-0.00915237
-0.00915065
-0.00914913
-0.00914656
-0.00914246
-0.00913504
-0.00912716
-0.00912138
-0.00911561
-0.00910504
-0.00909109
-0.00908049
-0.00907147
-0.00905825
-0.00904077
-0.00902567
-0.00901231
-0.00899542
-0.00897596
-0.00895686
-0.00893904
-0.00891825
-0.00889627
-0.00887393
-0.00885124
-0.00882778
-0.00880194
-0.00877733
-0.00875011
-0.00872395
-0.00869502
-0.0086666
-0.00863712
-0.00860627
-0.00857597
-0.00854288
-0.00851159
-0.00847716
-0.00844395
-0.00840915
-0.0083734
-0.00833891
-0.0083008
-0.00826566
-0.00822723
-0.00818915
-0.00815221
-0.00811101
-0.00807372
-0.00803288
-0.00799296
-0.00795397
-0.00791547
-0.00788149
-0.00785181
-0.00783559
0.00830059
0.00409137
-0.0028104
-0.00790526
-0.00904352
-0.00775637
-0.00618102
-0.00510268
-0.0045081
-0.00421832
-0.00409969
-0.00408065
-0.00412508
-0.00420953
-0.00431425
-0.00442481
-0.00453424
-0.00463963
-0.00473779
-0.00482619
-0.00490578
-0.00497995
-0.0050508
-0.00511833
-0.00518273
-0.00524565
-0.00530893
-0.00537328
-0.00543809
-0.00550239
-0.00556617
-0.00563049
-0.00569585
-0.00576134
-0.0058255
-0.00588777
-0.00594854
-0.00600816
-0.0060665
-0.00612344
-0.00617906
-0.00623342
-0.00628647
-0.0063382
-0.00638876
-0.00643844
-0.00648739
-0.00653564
-0.00658321
-0.00663022
-0.00667678
-0.00672318
-0.00676957
-0.00681599
-0.00686231
-0.00690826
-0.00695356
-0.00699816
-0.00704195
-0.00708467
-0.00712584
-0.00716541
-0.0072038
-0.00724161
-0.00727914
-0.00731665
-0.00735428
-0.00739212
-0.00743004
-0.00746787
-0.00750524
-0.00754188
-0.00757758
-0.00761245
-0.00764661
-0.00768048
-0.00771446
-0.0077488
-0.00778321
-0.00781725
-0.00785063
-0.00788334
-0.00791537
-0.0079468
-0.00797772
-0.00800831
-0.0080388
-0.0080693
-0.00809972
-0.00812974
-0.00815918
-0.00818799
-0.00821637
-0.00824437
-0.00827219
-0.00829983
-0.00832745
-0.00835488
-0.00838187
-0.00840803
-0.0084335
-0.00845866
-0.00848391
-0.00850896
-0.00853359
-0.00855772
-0.00858146
-0.00860482
-0.0086279
-0.00865086
-0.00867381
-0.00869669
-0.00871926
-0.00874152
-0.00876355
-0.00878545
-0.00880713
-0.00882865
-0.00884997
-0.00887088
-0.00889124
-0.008911
-0.00893058
-0.0089499
-0.00896868
-0.0089865
-0.00900332
-0.00901922
-0.00903458
-0.00904975
-0.00906423
-0.00907742
-0.00908855
-0.00909876
-0.00910851
-0.00911865
-0.00912748
-0.00913451
-0.00913911
-0.00914322
-0.00914773
-0.00915198
-0.00915407
-0.00915353
-0.00915233
-0.00915062
-0.0091491
-0.00914653
-0.00914244
-0.00913501
-0.00912713
-0.00912135
-0.00911559
-0.00910502
-0.00909107
-0.00908047
-0.00907145
-0.00905823
-0.00904076
-0.00902565
-0.00901229
-0.0089954
-0.00897594
-0.00895685
-0.00893903
-0.00891823
-0.00889626
-0.00887392
-0.00885123
-0.00882777
-0.00880193
-0.00877732
-0.0087501
-0.00872395
-0.00869502
-0.00866659
-0.00863711
-0.00860626
-0.00857596
-0.00854288
-0.00851159
-0.00847716
-0.00844395
-0.00840915
-0.0083734
-0.00833891
-0.00830079
-0.00826566
-0.00822723
-0.00818915
-0.00815221
-0.008111
-0.00807372
-0.00803288
-0.00799295
-0.00795397
-0.00791547
-0.00788149
-0.00785181
-0.00783559
0.00752265
0.00389614
-0.00264948
-0.00764142
-0.00888591
-0.00769475
-0.00614949
-0.00507865
-0.00448897
-0.0042035
-0.00408817
-0.00407148
-0.00411757
-0.00420323
-0.00430883
-0.00442006
-0.00453001
-0.00463583
-0.00473437
-0.00482308
-0.00490295
-0.00497738
-0.00504845
-0.00511617
-0.00518075
-0.00524382
-0.00530723
-0.00537169
-0.00543661
-0.00550101
-0.00556487
-0.00562926
-0.00569469
-0.00576024
-0.00582446
-0.00588677
-0.0059476
-0.00600726
-0.00606564
-0.00612261
-0.00617826
-0.00623265
-0.00628573
-0.00633748
-0.00638807
-0.00643777
-0.00648674
-0.00653501
-0.00658261
-0.00662963
-0.00667621
-0.00672263
-0.00676904
-0.00681548
-0.00686181
-0.00690779
-0.0069531
-0.00699771
-0.00704151
-0.00708425
-0.00712543
-0.00716502
-0.00720342
-0.00724124
-0.00727878
-0.0073163
-0.00735394
-0.0073918
-0.00742972
-0.00746757
-0.00750494
-0.00754159
-0.0075773
-0.00761218
-0.00764634
-0.00768022
-0.00771421
-0.00774856
-0.00778297
-0.00781702
-0.00785041
-0.00788312
-0.00791516
-0.0079466
-0.00797752
-0.00800812
-0.00803861
-0.00806912
-0.00809954
-0.00812956
-0.00815901
-0.00818782
-0.00821621
-0.00824422
-0.00827203
-0.00829968
-0.0083273
-0.00835473
-0.00838173
-0.0084079
-0.00843337
-0.00845853
-0.00848378
-0.00850884
-0.00853347
-0.0085576
-0.00858134
-0.00860471
-0.00862778
-0.00865075
-0.0086737
-0.00869658
-0.00871916
-0.00874142
-0.00876346
-0.00878536
-0.00880704
-0.00882856
-0.00884988
-0.0088708
-0.00889115
-0.00891092
-0.00893051
-0.00894982
-0.00896861
-0.00898643
-0.00900325
-0.00901916
-0.00903451
-0.00904969
-0.00906417
-0.00907737
-0.00908849
-0.00909871
-0.00910846
-0.0091186
-0.00912744
-0.00913447
-0.00913907
-0.00914318
-0.00914769
-0.00915195
-0.00915403
-0.00915349
-0.0091523
-0.00915059
-0.00914907
-0.0091465
-0.00914241
-0.00913498
-0.00912711
-0.00912133
-0.00911557
-0.009105
-0.00909105
-0.00908045
-0.00907143
-0.00905821
-0.00904074
-0.00902564
-0.00901227
-0.00899539
-0.00897593
-0.00895683
-0.00893901
-0.00891822
-0.00889625
-0.00887391
-0.00885122
-0.00882776
-0.00880192
-0.00877731
-0.00875009
-0.00872394
-0.00869501
-0.00866659
-0.00863711
-0.00860626
-0.00857596
-0.00854287
-0.00851158
-0.00847715
-0.00844394
-0.00840915
-0.00837339
-0.0083389
-0.00830079
-0.00826566
-0.00822723
-0.00818915
-0.00815221
-0.008111
-0.00807372
-0.00803288
-0.00799295
-0.00795396
-0.00791547
-0.00788148
-0.00785181
-0.0078356
0.0067839
0.00371998
-0.0024224
-0.00729381
-0.00866758
-0.00760746
-0.00610544
-0.00504343
-0.00445984
-0.00418106
-0.00407127
-0.00405855
-0.00410735
-0.00419484
-0.00430175
-0.00441392
-0.0045246
-0.00463099
-0.00473
-0.00481913
-0.00489938
-0.00497414
-0.00504552
-0.00511352
-0.00517834
-0.00524162
-0.00530522
-0.00536985
-0.0054349
-0.00549942
-0.00556341
-0.0056279
-0.00569342
-0.00575905
-0.00582333
-0.00588571
-0.00594659
-0.00600631
-0.00606474
-0.00612175
-0.00617744
-0.00623186
-0.00628497
-0.00633675
-0.00638737
-0.00643709
-0.00648609
-0.00653437
-0.00658199
-0.00662903
-0.00667563
-0.00672207
-0.0067685
-0.00681495
-0.00686131
-0.0069073
-0.00695263
-0.00699726
-0.00704108
-0.00708383
-0.00712502
-0.00716462
-0.00720303
-0.00724086
-0.00727841
-0.00731594
-0.0073536
-0.00739147
-0.00742941
-0.00746726
-0.00750464
-0.0075413
-0.00757702
-0.0076119
-0.00764607
-0.00767996
-0.00771396
-0.00774832
-0.00778274
-0.00781679
-0.00785019
-0.0078829
-0.00791494
-0.00794639
-0.00797732
-0.00800792
-0.00803842
-0.00806894
-0.00809937
-0.00812939
-0.00815884
-0.00818766
-0.00821604
-0.00824406
-0.00827188
-0.00829953
-0.00832716
-0.00835459
-0.00838159
-0.00840776
-0.00843324
-0.0084584
-0.00848365
-0.00850872
-0.00853335
-0.00855748
-0.00858122
-0.00860459
-0.00862767
-0.00865064
-0.0086736
-0.00869648
-0.00871906
-0.00874132
-0.00876336
-0.00878526
-0.00880695
-0.00882847
-0.00884979
-0.00887071
-0.00889107
-0.00891084
-0.00893043
-0.00894975
-0.00896854
-0.00898636
-0.00900318
-0.00901909
-0.00903445
-0.00904962
-0.00906411
-0.00907731
-0.00908844
-0.00909865
-0.0091084
-0.00911856
-0.00912739
-0.00913443
-0.00913903
-0.00914314
-0.00914765
-0.00915191
-0.00915399
-0.00915346
-0.00915227
-0.00915055
-0.00914904
-0.00914647
-0.00914238
-0.00913496
-0.00912708
-0.0091213
-0.00911555
-0.00910497
-0.00909103
-0.00908043
-0.00907141
-0.00905819
-0.00904072
-0.00902562
-0.00901226
-0.00899537
-0.00897592
-0.00895682
-0.008939
-0.00891821
-0.00889624
-0.0088739
-0.00885121
-0.00882775
-0.00880192
-0.0087773
-0.00875009
-0.00872393
-0.00869501
-0.00866658
-0.0086371
-0.00860625
-0.00857595
-0.00854287
-0.00851158
-0.00847715
-0.00844394
-0.00840914
-0.00837339
-0.0083389
-0.00830079
-0.00826566
-0.00822723
-0.00818914
-0.00815221
-0.008111
-0.00807371
-0.00803288
-0.00799295
-0.00795396
-0.00791546
-0.00788148
-0.0078518
-0.0078356
0.00607712
0.00353471
-0.00217706
-0.00691699
-0.00842317
-0.00750838
-0.00605543
-0.00500026
-0.00442156
-0.00415047
-0.00404791
-0.00404061
-0.00409317
-0.00418325
-0.00429197
-0.00440548
-0.00451716
-0.00462432
-0.00472394
-0.00481361
-0.00489437
-0.00496961
-0.00504142
-0.00510981
-0.005175
-0.00523862
-0.0053025
-0.00536736
-0.00543262
-0.00549733
-0.00556151
-0.00562617
-0.00569182
-0.00575756
-0.00582194
-0.00588441
-0.00594538
-0.00600518
-0.00606368
-0.00612075
-0.0061765
-0.00623097
-0.00628411
-0.00633593
-0.00638658
-0.00643633
-0.00648535
-0.00653365
-0.00658129
-0.00662835
-0.00667497
-0.00672143
-0.00676788