/*--------------------------------*- C++ -*----------------------------------*\
| =========                 |                                                 |
| \\      /  F ield         | OpenFOAM: The Open Source CFD Toolbox           |
|  \\    /   O peration     | Version:  v2012                                 |
|   \\  /    A nd           | Website:  www.openfoam.com                      |
|    \\/     M anipulation  |                                                 |
\*---------------------------------------------------------------------------*/
FoamFile
{
    version     2.0;
    format      ascii;
    class       volScalarField;
    location    "0.6";
    object      p;
}
// * * * * * * * * * * * * * * * * * * * * * * * * * * * * * * * * * * * * * //

dimensions      [0 2 -2 0 0 0 0];


internalField   nonuniform List<scalar> 
17600
(
-1.58653e-10
-0.00174725
-0.00203268
-0.00116072
-0.0010916
-0.00132465
-0.00128145
-0.00214731
-0.0024115
-0.00219188
-0.00314746
-0.00308252
-0.00366111
-0.00367008
-0.00386937
-0.00344485
-0.00314576
-0.00164986
-7.95441e-06
0.0035677
1.19163e-06
-0.00174972
-0.0020329
-0.00116165
-0.00109105
-0.00132755
-0.00128013
-0.00214991
-0.00240978
-0.00220274
-0.00314386
-0.00308688
-0.00365767
-0.00368103
-0.00386402
-0.00347086
-0.0031359
-0.00171986
5.70274e-06
0.00324912
1.95497e-06
-0.00175329
-0.00203242
-0.00116333
-0.00109142
-0.0013321
-0.00127797
-0.00215383
-0.00240652
-0.00221372
-0.00313892
-0.00309316
-0.00365349
-0.00369336
-0.00385768
-0.00349791
-0.00312529
-0.00178838
2.77945e-06
0.00281943
1.18495e-06
-0.00175642
-0.00203116
-0.00116569
-0.00109333
-0.00133757
-0.00127599
-0.00215786
-0.00240219
-0.00222357
-0.00313386
-0.00310015
-0.00364938
-0.00370653
-0.00385141
-0.00352663
-0.00311645
-0.00185858
-3.00904e-05
0.00240265
-9.87187e-07
-0.00175881
-0.00202931
-0.00116898
-0.00109653
-0.00134403
-0.00127398
-0.00216163
-0.00239699
-0.00223268
-0.00312858
-0.00310813
-0.00364495
-0.00372138
-0.00384464
-0.00355845
-0.00310922
-0.00193345
-9.35251e-05
0.00200821
-4.27771e-06
-0.00176042
-0.00202707
-0.00117329
-0.00110052
-0.00135133
-0.00127151
-0.00216497
-0.00239108
-0.00224122
-0.00312302
-0.00311712
-0.00363999
-0.00373782
-0.00383748
-0.003593
-0.00310496
-0.00201306
-0.000186741
0.00163756
-8.43718e-06
-0.0017613
-0.00202462
-0.00117854
-0.00110482
-0.0013592
-0.00126843
-0.00216777
-0.00238471
-0.00224934
-0.00311718
-0.00312696
-0.0036345
-0.00375566
-0.00383052
-0.00362951
-0.00310601
-0.00209648
-0.000308973
0.00128631
-1.31904e-05
-0.00176157
-0.00202212
-0.00118453
-0.00110913
-0.00136749
-0.00126485
-0.00217006
-0.00237815
-0.0022571
-0.00311113
-0.00313757
-0.00362859
-0.00377476
-0.00382447
-0.00366715
-0.00311479
-0.00218217
-0.000459517
0.000948344
-1.82774e-05
-0.00176143
-0.00201961
-0.0011911
-0.00111333
-0.00137616
-0.00126092
-0.00217195
-0.00237158
-0.00226455
-0.00310492
-0.00314886
-0.00362245
-0.00379488
-0.0038201
-0.00370512
-0.00313347
-0.0022692
-0.00063695
0.000617512
-2.3519e-05
-0.00176109
-0.0020171
-0.00119811
-0.00111746
-0.00138518
-0.00125677
-0.0021735
-0.00236508
-0.00227167
-0.00309834
-0.00316084
-0.00361637
-0.00381556
-0.00381832
-0.00374263
-0.00316375
-0.00235781
-0.000838589
0.00028839
-2.883e-05
-0.00176072
-0.0020146
-0.00120544
-0.00112157
-0.00139451
-0.00125249
-0.00217473
-0.00235869
-0.0022784
-0.00309195
-0.00317316
-0.0036107
-0.00383624
-0.00382009
-0.00377906
-0.00320694
-0.00244945
-0.00106052
-4.32312e-05
-3.41892e-05
-0.00176046
-0.00201211
-0.00121304
-0.00112573
-0.00140406
-0.00124816
-0.00217562
-0.00235249
-0.00228461
-0.00308567
-0.00318532
-0.00360588
-0.00385645
-0.00382624
-0.003814
-0.00326372
-0.00254669
-0.00129812
-0.000380018
-3.9605e-05
-0.00176038
-0.00200964
-0.00122083
-0.00112996
-0.00141374
-0.00124386
-0.00217608
-0.00234655
-0.00229013
-0.00307931
-0.00319708
-0.00360239
-0.00387572
-0.00383754
-0.00384751
-0.00333374
-0.00265261
-0.00154696
-0.000723087
-4.50963e-05
-0.00176054
-0.00200721
-0.00122876
-0.0011343
-0.00142347
-0.00123967
-0.00217601
-0.00234103
-0.00229475
-0.00307421
-0.00320803
-0.00360068
-0.00389363
-0.00385468
-0.00388165
-0.00341553
-0.00277001
-0.00180366
-0.00107235
-5.06865e-05
-0.00176092
-0.00200485
-0.00123677
-0.00113878
-0.00143313
-0.0012357
-0.00217522
-0.00233617
-0.00229817
-0.00307015
-0.00321775
-0.00360096
-0.00391006
-0.00387799
-0.00391814
-0.00350719
-0.00290104
-0.00206637
-0.00142696
-5.64046e-05
-0.00176153
-0.00200262
-0.00124481
-0.00114345
-0.00144262
-0.0012321
-0.00217346
-0.00233222
-0.00230004
-0.0030673
-0.00322618
-0.00360335
-0.00392537
-0.00390704
-0.0039591
-0.00360754
-0.00304727
-0.00233435
-0.00178546
-6.22884e-05
-0.00176232
-0.00200056
-0.00125281
-0.00114837
-0.0014518
-0.00122903
-0.00217049
-0.00232946
-0.00230005
-0.00306582
-0.00323321
-0.00360784
-0.00394028
-0.00394069
-0.00400652
-0.00371651
-0.00320937
-0.00260745
-0.00214613
-6.8385e-05
-0.00176326
-0.00199873
-0.00126066
-0.00115362
-0.00146052
-0.00122668
-0.00216601
-0.00232818
-0.0022979
-0.00306582
-0.00323892
-0.00361412
-0.00395549
-0.00397765
-0.0040618
-0.0038347
-0.00338698
-0.00288608
-0.00250742
-7.47528e-05
-0.00176427
-0.00199724
-0.00126829
-0.0011593
-0.00146858
-0.00122529
-0.00215972
-0.00232858
-0.00229338
-0.00306718
-0.00324368
-0.00362152
-0.00397361
-0.00401726
-0.00412585
-0.00396299
-0.00357926
-0.00317102
-0.00286826
-8.1463e-05
-0.00176528
-0.00199617
-0.00127557
-0.00116554
-0.00147577
-0.00122512
-0.00215134
-0.00233078
-0.00228663
-0.00306962
-0.00324811
-0.00362882
-0.00399563
-0.00405987
-0.00419905
-0.00410233
-0.00378536
-0.00346298
-0.00322841
-8.86013e-05
-0.00176617
-0.00199565
-0.00128234
-0.00117251
-0.00148184
-0.00122637
-0.00214066
-0.00233478
-0.00227777
-0.00307251
-0.00325321
-0.00363474
-0.00402216
-0.00410656
-0.00428101
-0.00425351
-0.00400467
-0.0037623
-0.00358857
-9.62702e-05
-0.0017668
-0.00199586
-0.00128844
-0.0011804
-0.00148661
-0.00122918
-0.00212753
-0.00234051
-0.00226714
-0.00307462
-0.00326029
-0.00363862
-0.00405351
-0.00415889
-0.00437126
-0.00441721
-0.00423703
-0.00406891
-0.00394997
-0.000104591
-0.00176699
-0.00199699
-0.00129365
-0.00118936
-0.00148994
-0.0012337
-0.002112
-0.00234764
-0.00225538
-0.00307439
-0.00327033
-0.00363904
-0.00408949
-0.00421857
-0.00446979
-0.00459393
-0.00448273
-0.00438252
-0.00431392
-0.000113714
-0.00176653
-0.00199926
-0.00129783
-0.00119948
-0.0014917
-0.00123989
-0.00209435
-0.00235561
-0.00224351
-0.00307052
-0.00328365
-0.00363844
-0.00412959
-0.00428734
-0.00457701
-0.00478346
-0.00474214
-0.00470267
-0.00468125
-0.000123826
-0.00176514
-0.0020029
-0.00130083
-0.00121087
-0.00149192
-0.00124746
-0.00207509
-0.00236356
-0.0022325
-0.00306232
-0.00330038
-0.00363897
-0.00417118
-0.00436669
-0.00469363
-0.0049849
-0.00501549
-0.00502907
-0.00505191
-0.000135152
-0.00176249
-0.00200815
-0.00130254
-0.00122354
-0.00149082
-0.00125596
-0.00205503
-0.00237153
-0.002223
-0.00304953
-0.00332023
-0.00364119
-0.0042144
-0.00445756
-0.00482063
-0.00519704
-0.00530276
-0.00536183
-0.00542469
-0.00014797
-0.00175818
-0.00201522
-0.00130298
-0.00123732
-0.00148874
-0.00126463
-0.00203498
-0.00237498
-0.00221542
-0.00303239
-0.00334228
-0.00364698
-0.0042595
-0.00456028
-0.00495878
-0.00541839
-0.00560341
-0.0057017
-0.00579751
-0.000162601
-0.00175177
-0.00202421
-0.00130233
-0.0012518
-0.00148629
-0.00127256
-0.00201567
-0.00237553
-0.00220966
-0.00301205
-0.00336592
-0.00365787
-0.00430798
-0.00467491
-0.00510844
-0.00564699
-0.00591618
-0.00605006
-0.00616845
-0.000179436
-0.0017428
-0.00203513
-0.00130088
-0.0012664
-0.00148434
-0.00127881
-0.00199751
-0.00237304
-0.00220497
-0.00299001
-0.00338931
-0.00367505
-0.00436147
-0.00480139
-0.00526968
-0.00588068
-0.00623882
-0.00640846
-0.00653691
-0.0001989
-0.00173085
-0.00204785
-0.00129909
-0.00128046
-0.00148393
-0.0012825
-0.00198072
-0.00236797
-0.00220045
-0.00296749
-0.00341366
-0.00369964
-0.0044213
-0.00493942
-0.0054426
-0.00611748
-0.00656812
-0.00677772
-0.00690416
-0.000221395
-0.00171545
-0.00206197
-0.00129763
-0.00129299
-0.00148596
-0.00128332
-0.00196488
-0.00236137
-0.00219549
-0.00294547
-0.00344035
-0.00373236
-0.00448707
-0.00508836
-0.0056277
-0.00635607
-0.00690043
-0.00715722
-0.00727284
-0.0002473
-0.00169657
-0.00207684
-0.00129747
-0.00130303
-0.00149085
-0.00128144
-0.00194897
-0.00235448
-0.00218974
-0.00292464
-0.00347152
-0.00377377
-0.00455783
-0.00524723
-0.00582586
-0.00659609
-0.00723211
-0.00754473
-0.00764562
-0.000276938
-0.00167424
-0.00209146
-0.00129953
-0.00131012
-0.0014987
-0.00127726
-0.00193206
-0.0023487
-0.00218323
-0.00290517
-0.00350902
-0.00382491
-0.00463221
-0.00541372
-0.00603727
-0.0068377
-0.00755944
-0.00793654
-0.00802421
-0.00031049
-0.00164873
-0.00210484
-0.00130434
-0.00131395
-0.00150945
-0.00127154
-0.00191334
-0.00234544
-0.00217703
-0.00288693
-0.00355394
-0.00388728
-0.00470893
-0.00558414
-0.0062613
-0.00708168
-0.0078786
-0.00832776
-0.00840901
-0.000348112
-0.00162053
-0.00211596
-0.00131234
-0.00131446
-0.00152279
-0.0012653
-0.00189193
-0.00234572
-0.0021732
-0.00286953
-0.00360632
-0.00396261
-0.00478739
-0.00575419
-0.00649662
-0.00732964
-0.00818634
-0.00871211
-0.00879835
-0.000389953
-0.00159047
-0.00212375
-0.00132353
-0.00131177
-0.00153829
-0.0012596
-0.00186812
-0.00235045
-0.00217424
-0.00285265
-0.00366478
-0.00405235
-0.0048685
-0.00591959
-0.00674053
-0.00758393
-0.00848113
-0.00908237
-0.00918778
-0.000435868
-0.00155948
-0.00212747
-0.00133743
-0.00130608
-0.00155578
-0.00125577
-0.00184183
-0.00236013
-0.0021832
-0.00283647
-0.00372644
-0.00415687
-0.00495487
-0.00607714
-0.00698884
-0.00784669
-0.00876417
-0.00943208
-0.00957006
-0.000485557
-0.00152833
-0.00212689
-0.00135371
-0.0012973
-0.00157503
-0.00125575
-0.00180837
-0.00237444
-0.00220372
-0.00282088
-0.00378756
-0.00427521
-0.00504995
-0.00622558
-0.00723625
-0.00811821
-0.00903886
-0.00975733
-0.00993654
-0.000538695
-0.00149766
-0.00212231
-0.00137241
-0.00128461
-0.00159529
-0.00126216
-0.00177073
-0.00239225
-0.00223946
-0.00280726
-0.00384419
-0.00440558
-0.00515678
-0.00636545
-0.0074772
-0.00839654
-0.00930944
-0.0100578
-0.0102792
-0.000594998
-0.001468
-0.00211426
-0.00139353
-0.00126713
-0.00161557
-0.00127808
-0.00173059
-0.00241017
-0.00229244
-0.00279965
-0.00389064
-0.00454361
-0.00527676
-0.00649802
-0.00770643
-0.00867797
-0.00957972
-0.0103366
-0.0105925
-0.000654331
-0.00143978
-0.00210278
-0.00141789
-0.00124455
-0.00163326
-0.00130645
-0.00169142
-0.00242389
-0.00236201
-0.00280529
-0.00392756
-0.00468224
-0.00540897
-0.00662435
-0.00791889
-0.00895727
-0.0098521
-0.0105986
-0.0108745
-0.000716537
-0.00141326
-0.00208741
-0.00144741
-0.00121755
-0.00164397
-0.00134934
-0.00165887
-0.00243074
-0.0024456
-0.00282964
-0.00395811
-0.00481514
-0.00555114
-0.00674599
-0.00811068
-0.00922807
-0.0101268
-0.0108495
-0.0111266
-0.000781394
-0.00138875
-0.00206779
-0.00148359
-0.0011882
-0.00164326
-0.00140717
-0.0016396
-0.00243046
-0.00253733
-0.00287336
-0.00398539
-0.00493886
-0.00570075
-0.0068653
-0.00827937
-0.00948269
-0.0104014
-0.0110943
-0.0113536
-0.000848565
-0.00136708
-0.00204307
-0.00152716
-0.00116125
-0.00162752
-0.00147664
-0.00164054
-0.00242465
-0.00263054
-0.00293461
-0.00401241
-0.00505177
-0.00585501
-0.00698485
-0.00842408
-0.00971241
-0.0106697
-0.0113362
-0.0115621
-0.000917364
-0.00134966
-0.00201182
-0.00157707
-0.00114409
-0.001596
-0.00154919
-0.00166609
-0.00242328
-0.00272111
-0.00300928
-0.00404014
-0.00515192
-0.00601023
-0.00710707
-0.00854667
-0.00990956
-0.0109224
-0.0115748
-0.0117588
-0.000986894
-0.00133817
-0.0019737
-0.00163206
-0.0011429
-0.00155077
-0.00161458
-0.00171669
-0.00243455
-0.00280999
-0.00309462
-0.00406916
-0.0052364
-0.00616116
-0.00723315
-0.0086515
-0.0100695
-0.0111478
-0.0118045
-0.0119478
-0.00105635
-0.00133348
-0.00192994
-0.00168925
-0.00116194
-0.00149859
-0.0016642
-0.00178648
-0.00246339
-0.00290053
-0.00319117
-0.00410133
-0.00530311
-0.00630107
-0.00736166
-0.00874359
-0.0101917
-0.0113349
-0.0120145
-0.0121279
-0.00112501
-0.00133599
-0.00188323
-0.00174226
-0.00120442
-0.00145192
-0.0016936
-0.00186357
-0.00251072
-0.00299749
-0.00329929
-0.0041396
-0.00535196
-0.00642295
-0.00748821
-0.00882701
-0.0102795
-0.0114767
-0.012192
-0.0122913
-0.00119196
-0.00134657
-0.00183643
-0.00178637
-0.00126999
-0.00142283
-0.00170263
-0.00193629
-0.00257485
-0.00310396
-0.0034208
-0.0041871
-0.00538435
-0.00652027
-0.00760593
-0.00890358
-0.0103386
-0.0115716
-0.0123261
-0.0124265
-0.00125613
-0.00136568
-0.00179346
-0.00181804
-0.00135298
-0.00142057
-0.00170087
-0.00199626
-0.00264663
-0.00322005
-0.00355889
-0.00424897
-0.00540344
-0.00658761
-0.00770588
-0.00897171
-0.0103746
-0.0116224
-0.0124108
-0.0125225
-0.00131722
-0.00139274
-0.00175788
-0.00183944
-0.00144539
-0.00144764
-0.00170476
-0.00204248
-0.00271402
-0.00334221
-0.00371317
-0.00433174
-0.00541596
-0.00662219
-0.00777748
-0.00902495
-0.01039
-0.0116336
-0.0124449
-0.0125717
-0.00137548
-0.00142681
-0.00173219
-0.00185264
-0.00154027
-0.00150353
-0.00172641
-0.00207827
-0.00276924
-0.00346164
-0.00388046
-0.00444055
-0.00543231
-0.00662639
-0.00781098
-0.00905211
-0.0103819
-0.0116082
-0.0124303
-0.0125713
-0.00143103
-0.00146663
-0.00171909
-0.00186052
-0.00163182
-0.00158588
-0.00177277
-0.0021131
-0.00281003
-0.00356781
-0.00405477
-0.00457618
-0.00546432
-0.00660896
-0.00780164
-0.00904035
-0.0103415
-0.0115452
-0.0123683
-0.0125213
-0.00148447
-0.00151032
-0.00171963
-0.00186887
-0.00171637
-0.00168703
-0.00184777
-0.00215983
-0.00283964
-0.00365143
-0.00422401
-0.00473411
-0.00552202
-0.00658347
-0.00775207
-0.00897963
-0.010256
-0.0114375
-0.012257
-0.0124207
-0.00153684
-0.00155694
-0.00173264
-0.00188349
-0.00179508
-0.00179638
-0.00194904
-0.00223036
-0.00286675
-0.0037091
-0.00437365
-0.00490545
-0.00561011
-0.00656548
-0.00767214
-0.00886664
-0.0101132
-0.011273
-0.0120892
-0.0122666
-0.00158879
-0.00160629
-0.00175759
-0.00190667
-0.00187048
-0.00190751
-0.00207095
-0.00232953
-0.00290492
-0.00374597
-0.00449237
-0.00507493
-0.00572413
-0.00656837
-0.00757739
-0.00870606
-0.00990626
-0.0110398
-0.0118555
-0.0120539
-0.00164122
-0.00165759
-0.00179353
-0.00194103
-0.00194458
-0.00201756
-0.00220651
-0.00245559
-0.00296543
-0.00377202
-0.00457536
-0.00522531
-0.00585316
-0.00659813
-0.00748542
-0.00851041
-0.00963647
-0.0107301
-0.0115455
-0.0117772
-0.00169544
-0.00171103
-0.00183769
-0.00198833
-0.00202192
-0.0021242
-0.00234738
-0.00260471
-0.00305474
-0.00379929
-0.00462586
-0.00534243
-0.00598098
-0.00665097
-0.00741102
-0.00829916
-0.00931398
-0.0103431
-0.0111504
-0.0114276
-0.00175212
-0.00176779
-0.00188789
-0.0020465
-0.00210759
-0.00222999
-0.00248442
-0.0027689
-0.00317629
-0.00384071
-0.00465312
-0.00541853
-0.0060885
-0.006715
-0.00736122
-0.00809496
-0.00896012
-0.00988893
-0.0106683
-0.0109924
-0.00181159
-0.00182842
-0.00194392
-0.00211372
-0.0022029
-0.00233967
-0.00261504
-0.00293576
-0.00332533
-0.00390879
-0.00466985
-0.00545383
-0.00615979
-0.00677304
-0.00733285
-0.00791566
-0.00860472
-0.00939107
-0.0101085
-0.010466
-0.00187417
-0.00189371
-0.00200553
-0.00218837
-0.00230774
-0.0024552
-0.00274129
-0.00309648
-0.00348931
-0.00400842
-0.00469286
-0.00545717
-0.00618623
-0.00680649
-0.00731253
-0.00776752
-0.00827469
-0.00888235
-0.0094921
-0.00985379
-0.00193989
-0.00196446
-0.00207333
-0.00226781
-0.00242072
-0.00257939
-0.00286527
-0.00324608
-0.00365734
-0.00413413
-0.00473607
-0.00544444
-0.00616824
-0.00680118
-0.00728226
-0.00764281
-0.00798267
-0.00839272
-0.00884857
-0.00916821
-0.00200877
-0.00204079
-0.0021486
-0.00235042
-0.00253782
-0.00271365
-0.00299228
-0.00338232
-0.00381835
-0.00427645
-0.00480443
-0.00543363
-0.00611772
-0.00675035
-0.0072254
-0.00752454
-0.0077262
-0.00793978
-0.00820917
-0.00843595
-0.00208097
-0.00212239
-0.00223208
-0.00243625
-0.00265561
-0.00285521
-0.00312633
-0.00351002
-0.00396245
-0.00442207
-0.00489633
-0.00543839
-0.00605262
-0.00665685
-0.00712844
-0.00739366
-0.00749127
-0.00753015
-0.00760239
-0.00769756
-0.00215687
-0.00220839
-0.0023238
-0.00252649
-0.00277128
-0.00299976
-0.00326802
-0.00363607
-0.0040883
-0.00455674
-0.00500262
-0.00546535
-0.00598963
-0.00653396
-0.00698417
-0.00723051
-0.00725911
-0.00716002
-0.00705112
-0.00699827
-0.00223704
-0.00229785
-0.00242243
-0.00262281
-0.0028836
-0.00314218
-0.00341536
-0.00376446
-0.00420171
-0.0046718
-0.00510712
-0.00551168
-0.0059403
-0.00639823
-0.00679711
-0.00702053
-0.00700894
-0.0068157
-0.00656712
-0.00637925
-0.00232181
-0.00239011
-0.00252601
-0.0027258
-0.00299337
-0.00327835
-0.00356398
-0.00389652
-0.00430901
-0.0047674
-0.00519653
-0.00556433
-0.0059075
-0.00626262
-0.00658295
-0.00676413
-0.00672723
-0.00648424
-0.00614646
-0.00586098
-0.00241118
-0.00248481
-0.00263219
-0.00283494
-0.00310252
-0.00340574
-0.00370816
-0.00403084
-0.00441416
-0.00484815
-0.0052646
-0.00560772
-0.00588452
-0.00613618
-0.00635809
-0.00647735
-0.00641451
-0.0061554
-0.00578199
-0.00544451
-0.00250466
-0.00258196
-0.00273872
-0.00294805
-0.00321318
-0.00352439
-0.00384258
-0.00416306
-0.00451856
-0.00491901
-0.00531192
-0.00563233
-0.00586002
-0.00602227
-0.00614034
-0.00618158
-0.00608497
-0.00582639
-0.00546154
-0.005122
-0.00260121
-0.00268149
-0.00284447
-0.0030618
-0.00332557
-0.00363661
-0.00396438
-0.00428709
-0.0046204
-0.00498306
-0.00534273
-0.00563597
-0.00582507
-0.0059182
-0.00594305
-0.00590094
-0.00576106
-0.00550474
-0.00517012
-0.00486278
-0.0026995
-0.00278267
-0.00294912
-0.00317331
-0.00343775
-0.00374423
-0.00407357
-0.00439794
-0.00471529
-0.00504125
-0.0053611
-0.00562156
-0.00577656
-0.00581849
-0.00576996
-0.00565221
-0.00546498
-0.00520497
-0.00490384
-0.00464507
-0.00279815
-0.00288424
-0.00305225
-0.00328072
-0.00354685
-0.00384745
-0.00417158
-0.00449331
-0.00479829
-0.00509235
-0.00537033
-0.00559359
-0.00571618
-0.00571968
-0.005619
-0.0054426
-0.00521174
-0.0049421
-0.00466733
-0.00445775
-0.00289564
-0.00298461
-0.00315313
-0.00338282
-0.00365023
-0.00394515
-0.00425985
-0.00457349
-0.00486621
-0.00513369
-0.00537256
-0.00555727
-0.00564839
-0.00562234
-0.00548679
-0.00527055
-0.00500665
-0.00472589
-0.00446871
-0.00430026
-0.0029904
-0.00308184
-0.00325047
-0.00347887
-0.0037458
-0.0040356
-0.00433922
-0.00464049
-0.00491889
-0.00516317
-0.00536794
-0.00551637
-0.00557828
-0.00553008
-0.00537316
-0.00513354
-0.00484836
-0.00455872
-0.00431308
-0.00417619
-0.00308079
-0.00317395
-0.00334235
-0.00356815
-0.00383223
-0.00411687
-0.00440983
-0.00469699
-0.00495935
-0.00518167
-0.00535615
-0.00547204
-0.00550865
-0.00544579
-0.0052795
-0.00502972
-0.00473416
-0.00444022
-0.0042031
-0.0040889
-0.00316482
-0.00325905
-0.00342672
-0.00364933
-0.00390879
-0.00418748
-0.00447086
-0.00474467
-0.00499191
-0.00519467
-0.00534117
-0.00542553
-0.005438
-0.00536455
-0.0051999
-0.00495546
-0.00466329
-0.00437299
-0.00414425
-0.00404549
-0.00324031
-0.003335
-0.00350167
-0.00372075
-0.00397493
-0.0042469
-0.00452121
-0.00478327
-0.00501769
-0.00520679
-0.00533365
-0.00538886
-0.0053698
-0.00527778
-0.00511176
-0.0048833
-0.00461767
-0.0043532
-0.00414338
-0.00405961
-0.00330477
-0.00339976
-0.00356513
-0.00378101
-0.0040301
-0.0042953
-0.00456106
-0.00481217
-0.00503483
-0.00521526
-0.00533886
-0.00538647
-0.00534419
-0.00521163
-0.00500809
-0.00476062
-0.00450335
-0.00427677
-0.00412217
-0.00408789
-0.00335519
-0.00345104
-0.00361523
-0.00382904
-0.00407401
-0.00433366
-0.00459247
-0.00483418
-0.00504428
-0.00521057
-0.00532787
-0.00539387
-0.00538852
-0.00529263
-0.00509623
-0.00480665
-0.00445466
-0.00409773
-0.00381921
-0.00371326
-0.0033878
-0.00348564
-0.00365062
-0.00386427
-0.00410778
-0.00436485
-0.00462057
-0.00485923
-0.00506377
-0.0052161
-0.00529849
-0.00529895
-0.00523167
-0.00511151
-0.00494998
-0.00475845
-0.00454699
-0.0043429
-0.0041905
-0.00415187
0.00738879
0.0022718
-0.00521006
-0.010519
-0.0117467
-0.0106505
-0.00930414
-0.00841167
-0.00794281
-0.00772572
-0.00764263
-0.00763475
-0.00766839
-0.00772038
-0.00777783
-0.00783466
-0.00788466
-0.00792122
-0.00794251
-0.00795377
-0.00796438
-0.00798189
-0.00800977
-0.00804906
-0.00809929
-0.00815822
-0.00822275
-0.00829088
-0.00836178
-0.0084341
-0.00850576
-0.0085756
-0.00864484
-0.00871559
-0.00878895
-0.00886481
-0.00894203
-0.00901928
-0.00909512
-0.00916884
-0.00924111
-0.00931312
-0.00938589
-0.00945974
-0.00953413
-0.00960805
-0.00968029
-0.0097502
-0.00981844
-0.00988695
-0.00995771
-0.0100309
-0.0101045
-0.0101764
-0.0102461
-0.0103154
-0.0103866
-0.0104604
-0.0105355
-0.0106093
-0.0106807
-0.0107502
-0.0108197
-0.01089
-0.01096
-0.0110275
-0.0110916
-0.0111531
-0.0112138
-0.0112739
-0.011332
-0.011387
-0.0114392
-0.0114903
-0.011541
-0.0115906
-0.0116381
-0.0116841
-0.0117297
-0.0117751
-0.0118198
-0.0118633
-0.0119064
-0.0119497
-0.011993
-0.0120358
-0.0120782
-0.0121206
-0.0121632
-0.0122059
-0.0122486
-0.0122913
-0.012334
-0.0123768
-0.0124198
-0.0124629
-0.0125063
-0.0125498
-0.0125935
-0.0126375
-0.0126816
-0.0127261
-0.0127706
-0.0128152
-0.0128598
-0.0129045
-0.0129493
-0.0129943
-0.0130392
-0.0130845
-0.01313
-0.0131759
-0.013222
-0.0132686
-0.0133152
-0.0133625
-0.0134098
-0.0134576
-0.0135055
-0.0135539
-0.0136024
-0.0136515
-0.0137009
-0.0137509
-0.0138012
-0.0138521
-0.0139036
-0.0139557
-0.0140085
-0.0140617
-0.0141159
-0.0141701
-0.0142256
-0.014281
-0.0143377
-0.0143943
-0.0144523
-0.01451
-0.014569
-0.014628
-0.014688
-0.0147483
-0.0148092
-0.014871
-0.0149328
-0.0149959
-0.0150588
-0.0151231
-0.0151873
-0.0152527
-0.0153183
-0.0153847
-0.0154518
-0.0155192
-0.0155877
-0.0156564
-0.0157261
-0.0157963
-0.015867
-0.0159388
-0.0160106
-0.0160839
-0.0161571
-0.0162314
-0.0163064
-0.0163815
-0.0164583
-0.0165345
-0.0166129
-0.0166907
-0.0167699
-0.0168501
-0.0169296
-0.0170119
-0.0170928
-0.017176
-0.0172597
-0.0173429
-0.0174295
-0.0175134
-0.0176013
-0.0176879
-0.0177753
-0.0178657
-0.0179529
-0.0180454
-0.0181346
-0.0182274
-0.0183193
-0.0184125
-0.018506
-0.0186
-0.0186952
-0.0187886
-0.0188848
-0.0189788
-0.0190709
-0.0191632
-0.0192471
-0.0193251
0.0066541
0.00209262
-0.00513237
-0.0103833
-0.0116655
-0.010612
-0.00928017
-0.00839481
-0.00793067
-0.00771648
-0.00763512
-0.00762837
-0.00766281
-0.00771539
-0.00777331
-0.00783053
-0.00788089
-0.00791779
-0.00793938
-0.00795091
-0.00796175
-0.00797946
-0.00800752
-0.00804696
-0.00809731
-0.00815635
-0.00822097
-0.00828918
-0.00836015
-0.00843255
-0.00850429
-0.00857421
-0.00864352
-0.00871433
-0.00878775
-0.00886366
-0.00894094
-0.00901823
-0.00909413
-0.0091679
-0.00924021
-0.00931227
-0.00938508
-0.00945896
-0.00953338
-0.00960734
-0.00967961
-0.00974956
-0.00981783
-0.00988636
-0.00995714
-0.0100303
-0.010104
-0.0101759
-0.0102456
-0.0103149
-0.0103862
-0.01046
-0.0105351
-0.010609
-0.0106804
-0.0107499
-0.0108194
-0.0108897
-0.0109597
-0.0110272
-0.0110913
-0.0111529
-0.0112136
-0.0112737
-0.0113318
-0.0113868
-0.011439
-0.0114901
-0.0115409
-0.0115904
-0.011638
-0.011684
-0.0117296
-0.011775
-0.0118197
-0.0118632
-0.0119063
-0.0119496
-0.0119929
-0.0120357
-0.0120781
-0.0121205
-0.0121632
-0.0122059
-0.0122485
-0.0122912
-0.012334
-0.0123768
-0.0124197
-0.0124629
-0.0125062
-0.0125498
-0.0125935
-0.0126374
-0.0126816
-0.0127261
-0.0127706
-0.0128152
-0.0128598
-0.0129045
-0.0129493
-0.0129943
-0.0130392
-0.0130845
-0.01313
-0.0131759
-0.013222
-0.0132686
-0.0133152
-0.0133625
-0.0134098
-0.0134576
-0.0135055
-0.0135539
-0.0136024
-0.0136515
-0.0137009
-0.0137509
-0.0138012
-0.0138521
-0.0139036
-0.0139557
-0.0140085
-0.0140617
-0.0141159
-0.0141701
-0.0142256
-0.014281
-0.0143377
-0.0143943
-0.0144523
-0.01451
-0.014569
-0.014628
-0.0146879
-0.0147483
-0.0148092
-0.014871
-0.0149328
-0.0149959
-0.0150588
-0.0151231
-0.0151873
-0.0152527
-0.0153183
-0.0153847
-0.0154518
-0.0155192
-0.0155877
-0.0156564
-0.0157261
-0.0157963
-0.015867
-0.0159388
-0.0160106
-0.0160839
-0.0161571
-0.0162314
-0.0163064
-0.0163815
-0.0164583
-0.0165345
-0.0166129
-0.0166907
-0.0167699
-0.0168501
-0.0169296
-0.0170119
-0.0170928
-0.017176
-0.0172597
-0.0173429
-0.0174295
-0.0175134
-0.0176013
-0.0176879
-0.0177753
-0.0178657
-0.0179529
-0.0180454
-0.0181346
-0.0182274
-0.0183193
-0.0184125
-0.018506
-0.0186
-0.0186952
-0.0187886
-0.0188848
-0.0189788
-0.0190709
-0.0191632
-0.0192471
-0.0193251
0.00588357
0.00191424
-0.00496045
-0.0101266
-0.0115178
-0.0105534
-0.0092489
-0.00837112
-0.00791226
-0.00770251
-0.00762442
-0.00761994
-0.00765597
-0.00770965
-0.00776832
-0.00782607
-0.00787681
-0.00791403
-0.00793592
-0.00794775
-0.00795887
-0.00797684
-0.00800512
-0.00804477
-0.00809529
-0.00815448
-0.00821921
-0.00828752
-0.00835856
-0.00843101
-0.00850282
-0.00857281
-0.0086422
-0.00871307
-0.00878656
-0.00886253
-0.00893986
-0.0090172
-0.00909314
-0.00916696
-0.00923932
-0.00931142
-0.00938428
-0.00945819
-0.00953264
-0.00960663
-0.00967894
-0.00974892
-0.00981723
-0.00988578
-0.00995659
-0.0100298
-0.0101035
-0.0101754
-0.0102451
-0.0103145
-0.0103858
-0.0104596
-0.0105347
-0.0106086
-0.01068
-0.0107496
-0.0108191
-0.0108894
-0.0109594
-0.011027
-0.0110911
-0.0111527
-0.0112134
-0.0112735
-0.0113316
-0.0113866
-0.0114388
-0.01149
-0.0115407
-0.0115903
-0.0116378
-0.0116839
-0.0117294
-0.0117749
-0.0118196
-0.0118631
-0.0119062
-0.0119495
-0.0119928
-0.0120357
-0.0120781
-0.0121205
-0.0121631
-0.0122058
-0.0122485
-0.0122912
-0.012334
-0.0123768
-0.0124197
-0.0124628
-0.0125062
-0.0125498
-0.0125935
-0.0126374
-0.0126816
-0.0127261
-0.0127706
-0.0128152
-0.0128597
-0.0129045
-0.0129493
-0.0129943
-0.0130392
-0.0130845
-0.01313
-0.0131759
-0.013222
-0.0132686
-0.0133152
-0.0133625
-0.0134098
-0.0134576
-0.0135055
-0.0135539
-0.0136024
-0.0136515
-0.0137009
-0.0137509
-0.0138012
-0.0138521
-0.0139036
-0.0139557
-0.0140085
-0.0140617
-0.0141159
-0.0141701
-0.0142256
-0.014281
-0.0143377
-0.0143943
-0.0144523
-0.01451
-0.014569
-0.014628
-0.0146879
-0.0147483
-0.0148092
-0.014871
-0.0149328
-0.0149959
-0.0150588
-0.0151231
-0.0151873
-0.0152527
-0.0153183
-0.0153847
-0.0154518
-0.0155192
-0.0155877
-0.0156564
-0.0157261
-0.0157963
-0.015867
-0.0159388
-0.0160106
-0.0160839
-0.0161571
-0.0162314
-0.0163064
-0.0163815
-0.0164583
-0.0165345
-0.0166129
-0.0166907
-0.0167699
-0.0168501
-0.0169296
-0.0170119
-0.0170928
-0.017176
-0.0172597
-0.0173429
-0.0174295
-0.0175134
-0.0176013
-0.0176879
-0.0177753
-0.0178657
-0.0179529
-0.0180454
-0.0181346
-0.0182274
-0.0183193
-0.0184125
-0.018506
-0.0186
-0.0186952
-0.0187886
-0.0188848
-0.0189788
-0.0190709
-0.0191632
-0.0192471
-0.0193251
0.0051508
0.0017563
-0.00472081
-0.00978751
-0.0113124
-0.01047
-0.00920431
-0.00833544
-0.00788345
-0.00768078
-0.00760837
-0.00760789
-0.00764666
-0.00770221
-0.00776212
-0.00782063
-0.00787181
-0.00790934
-0.00793154
-0.00794374
-0.00795524
-0.0079736
-0.00800225
-0.00804221
-0.00809301
-0.00815244
-0.00821736
-0.00828579
-0.00835691
-0.0084294
-0.00850124
-0.00857129
-0.00864076
-0.00871172
-0.0087853
-0.00886135
-0.00893873
-0.0090161
-0.00909208
-0.00916594
-0.00923835
-0.00931051
-0.00938343
-0.00945739
-0.00953186
-0.00960587
-0.0096782
-0.00974822
-0.00981657
-0.00988517
-0.009956
-0.0100292
-0.0101029
-0.0101749
-0.0102446
-0.010314
-0.0103853
-0.0104592
-0.0105343
-0.0106082
-0.0106796
-0.0107492
-0.0108188
-0.0108891
-0.0109591
-0.0110267
-0.0110908
-0.0111524
-0.0112132
-0.0112733
-0.0113314
-0.0113864
-0.0114386
-0.0114898
-0.0115405
-0.0115901
-0.0116377
-0.0116837
-0.0117293
-0.0117748
-0.0118195
-0.011863
-0.0119061
-0.0119494
-0.0119927
-0.0120356
-0.012078
-0.0121204
-0.0121631
-0.0122058
-0.0122484
-0.0122911
-0.0123339
-0.0123767
-0.0124196
-0.0124628
-0.0125062
-0.0125497
-0.0125934
-0.0126374
-0.0126816
-0.012726
-0.0127706
-0.0128151
-0.0128597
-0.0129045
-0.0129493
-0.0129943
-0.0130392
-0.0130845
-0.01313
-0.0131759
-0.013222
-0.0132686
-0.0133152
-0.0133625
-0.0134098
-0.0134576
-0.0135055
-0.0135539
-0.0136024
-0.0136515
-0.0137009
-0.0137509
-0.0138012
-0.0138521
-0.0139036
-0.0139557
-0.0140085
-0.0140617
-0.0141159
-0.0141701
-0.0142256
-0.014281
-0.0143377
-0.0143943
-0.0144523
-0.01451
-0.014569
-0.014628
-0.0146879
-0.0147483
-0.0148092
-0.014871
-0.0149328
-0.0149959
-0.0150588
-0.0151231
-0.0151873
-0.0152527
-0.0153183
-0.0153847
-0.0154518
-0.0155192
-0.0155877
-0.0156564
-0.0157261
-0.0157963
-0.015867
-0.0159388
-0.0160106
-0.0160839
-0.0161571
-0.0162314
-0.0163064
-0.0163815
-0.0164583
-0.0165345
-0.0166129
-0.0166907
-0.0167699
-0.0168501
-0.0169296
-0.0170119
-0.0170928
-0.017176
-0.0172597
-0.0173429
-0.0174295
-0.0175134
-0.0176013
-0.0176879
-0.0177753
-0.0178657
-0.0179529
-0.0180454
-0.0181346
-0.0182274
-0.0183193
-0.0184125
-0.018506
-0.0186
-0.0186952
-0.0187886
-0.0188848
-0.0189788
-0.0190709
-0.0191632
-0.0192471
-0.0193251
0.00444661
0.0015876
-0.004463
-0.00941893
-0.0110816
-0.010375
-0.00915303
-0.00829106
-0.00784507
-0.00765078
-0.00758589
-0.00759097
-0.00763364
-0.00769198
-0.00775379
-0.00781342
-0.00786519
-0.00790302
-0.00792555
-0.00793821
-0.00795027
-0.0079692
-0.0079984
-0.00803886
-0.0080901
-0.00814993
-0.00821516
-0.0082838
-0.00835501
-0.00842752
-0.00849935
-0.00856943
-0.008639
-0.0087101
-0.00878381
-0.00885996
-0.0089374
-0.00901479
-0.00909078
-0.00916467
-0.00923716
-0.00930942
-0.00938243
-0.00945645
-0.00953094
-0.00960494
-0.00967729
-0.00974735
-0.00981576
-0.00988443
-0.00995531
-0.0100286
-0.0101023
-0.0101742
-0.010244
-0.0103135
-0.0103848
-0.0104587
-0.0105338
-0.0106077
-0.0106792
-0.0107488
-0.0108184
-0.0108887
-0.0109587
-0.0110263
-0.0110904
-0.0111521
-0.0112128
-0.011273
-0.0113311
-0.0113861
-0.0114384
-0.0114896
-0.0115403
-0.0115899
-0.0116375
-0.0116835
-0.0117291
-0.0117746
-0.0118193
-0.0118629
-0.011906
-0.0119493
-0.0119926
-0.0120355
-0.0120779
-0.0121203
-0.012163
-0.0122057
-0.0122484
-0.0122911
-0.0123338
-0.0123767
-0.0124196
-0.0124628
-0.0125061
-0.0125497
-0.0125934
-0.0126374
-0.0126815
-0.012726
-0.0127705
-0.0128151
-0.0128597
-0.0129045
-0.0129493
-0.0129943
-0.0130392
-0.0130845
-0.0131299