/*--------------------------------*- C++ -*----------------------------------*\
| =========                 |                                                 |
| \\      /  F ield         | OpenFOAM: The Open Source CFD Toolbox           |
|  \\    /   O peration     | Version:  v2012                                 |
|   \\  /    A nd           | Website:  www.openfoam.com                      |
|    \\/     M anipulation  |                                                 |
\*---------------------------------------------------------------------------*/
FoamFile
{
    version     2.0;
    format      ascii;
    class       volVectorField;
    location    "0.6";
    object      U;
}
// * * * * * * * * * * * * * * * * * * * * * * * * * * * * * * * * * * * * * //

dimensions      [0 1 -1 0 0 0 0];


internalField   nonuniform List<vector> 
17600
(
(0.844042 0.00443356 0)
(1.15968 -0.00153073 0)
(0.83236 -0.00162397 0)
(1.13597 0.000134055 0)
(0.847049 0.00241908 0)
(1.12007 -0.00431169 0)
(0.844731 0.00364401 0)
(1.11198 -0.00269871 0)
(0.847504 0.00161033 0)
(1.10467 0.000525941 0)
(0.852003 -0.000322954 0)
(1.09883 0.000443422 0)
(0.854938 0.000717285 0)
(1.09611 0.000182224 0)
(0.855228 0.00102743 0)
(1.09457 6.66693e-05 0)
(0.851216 0.00166539 0)
(1.0944 3.61551e-05 0)
(0.839499 0.00290056 0)
(1.09348 0.000348321 0)
(0.852629 0.00432959 0)
(1.14556 -0.00127627 0)
(0.843719 -0.00162661 0)
(1.12143 0.000189795 0)
(0.860817 0.00236609 0)
(1.10325 -0.00407408 0)
(0.859302 0.00351667 0)
(1.09164 -0.00249104 0)
(0.865971 0.0014634 0)
(1.08047 0.000742635 0)
(0.878134 -0.000496589 0)
(1.0696 0.000612998 0)
(0.890164 0.000534548 0)
(1.05785 0.000419732 0)
(0.903633 0.000922388 0)
(1.04145 0.000295017 0)
(0.920047 0.00187624 0)
(1.01732 -4.11863e-06 0)
(0.9398 0.0042317 0)
(0.978627 -0.000339554 0)
(0.869831 0.00425753 0)
(1.1217 -0.00102825 0)
(0.866555 -0.00160882 0)
(1.09476 0.000212725 0)
(0.885761 0.00235578 0)
(1.07572 -0.00386571 0)
(0.88637 0.0034255 0)
(1.06031 -0.00236175 0)
(0.898114 0.00140178 0)
(1.04444 0.000721864 0)
(0.916941 -0.000482826 0)
(1.02987 0.000540969 0)
(0.933378 0.000635548 0)
(1.0155 0.000240896 0)
(0.949282 0.00118062 0)
(0.999497 -2.16539e-05 0)
(0.963038 0.00230445 0)
(0.983477 -0.000354708 0)
(0.970564 0.00464306 0)
(0.968639 0.000468985 0)
(0.893148 0.00425828 0)
(1.09306 -0.00087604 0)
(0.897181 -0.00152088 0)
(1.06269 0.000174122 0)
(0.915611 0.00239806 0)
(1.04592 -0.00374985 0)
(0.917633 0.00344619 0)
(1.02978 -0.00236842 0)
(0.931504 0.00147945 0)
(1.01344 0.000540463 0)
(0.950211 -0.000332697 0)
(1.00143 0.00032875 0)
(0.962376 0.000826842 0)
(0.99295 -1.74246e-05 0)
(0.971701 0.0014323 0)
(0.985785 -0.000273754 0)
(0.976843 0.00257359 0)
(0.98046 -0.000453384 0)
(0.976012 0.00485036 0)
(0.975188 0.00140517 0)
(0.918864 0.00430869 0)
(1.06474 -0.000816529 0)
(0.929172 -0.00135709 0)
(1.03323 0.000103673 0)
(0.943515 0.00245614 0)
(1.02182 -0.00368759 0)
(0.944945 0.00352349 0)
(1.00861 -0.002436 0)
(0.957027 0.00160512 0)
(0.996098 0.000339992 0)
(0.971023 -0.000197123 0)
(0.989688 0.000167888 0)
(0.976999 0.000937508 0)
(0.987361 -0.000168417 0)
(0.980933 0.00154772 0)
(0.985517 -0.000375825 0)
(0.982355 0.00269167 0)
(0.983501 -0.000398629 0)
(0.980182 0.00497465 0)
(0.979313 0.00232635 0)
(0.943217 0.00438303 0)
(1.04102 -0.000827363 0)
(0.956714 -0.00115092 0)
(1.01209 3.8859e-05 0)
(0.965228 0.00249397 0)
(1.00711 -0.00364006 0)
(0.964716 0.00359176 0)
(0.998469 -0.00249689 0)
(0.973254 0.00169878 0)
(0.99059 0.000186036 0)
(0.982387 -0.000120902 0)
(0.988339 7.76133e-05 0)
(0.984639 0.000978244 0)
(0.988872 -0.00025647 0)
(0.986327 0.00159616 0)
(0.988578 -0.00042657 0)
(0.986832 0.00274665 0)
(0.987091 -0.00027778 0)
(0.984594 0.00504529 0)
(0.983248 0.00317956 0)
(0.963417 0.00445738 0)
(1.02413 -0.000877882 0)
(0.976855 -0.000945029 0)
(1.00063 1.14077e-06 0)
(0.98007 0.00249672 0)
(1.00069 -0.00358933 0)
(0.977652 0.00362545 0)
(0.995991 -0.00252912 0)
(0.983046 0.00174497 0)
(0.991259 7.89995e-05 0)
(0.988998 -8.53706e-05 0)
(0.990819 1.89232e-05 0)
(0.989783 0.000992535 0)
(0.992095 -0.000325465 0)
(0.990673 0.00162337 0)
(0.992038 -0.000451569 0)
(0.990831 0.00275891 0)
(0.990634 -8.12746e-05 0)
(0.988503 0.00503775 0)
(0.98714 0.00400614 0)
(0.978223 0.00451133 0)
(1.01385 -0.000938682 0)
(0.989608 -0.000769505 0)
(0.996565 -9.45994e-06 0)
(0.989535 0.00247246 0)
(0.999182 -0.00353261 0)
(0.985998 0.00362752 0)
(0.997024 -0.00253572 0)
(0.989339 0.00176054 0)
(0.993891 2.90815e-06 0)
(0.993483 -6.54025e-05 0)
(0.99391 -2.75538e-05 0)
(0.993776 0.000999237 0)
(0.995224 -0.000380858 0)
(0.994266 0.00163946 0)
(0.995114 -0.000446109 0)
(0.994158 0.00273548 0)
(0.993698 0.00018842 0)
(0.991754 0.00496388 0)
(0.990464 0.0047974 0)
(0.987862 0.00453447 0)
(1.00847 -0.000990973 0)
(0.9967 -0.00063465 0)
(0.996405 -6.41827e-06 0)
(0.995437 0.00243813 0)
(0.999587 -0.00347287 0)
(0.991516 0.00360783 0)
(0.998885 -0.00252287 0)
(0.993676 0.00175968 0)
(0.996528 -5.09458e-05 0)
(0.996737 -4.92527e-05 0)
(0.996533 -6.58796e-05 0)
(0.996828 0.00100233 0)
(0.997736 -0.000418352 0)
(0.997047 0.00164035 0)
(0.997527 -0.000402705 0)
(0.996723 0.00267762 0)
(0.996072 0.000520544 0)
(0.994291 0.00485272 0)
(0.99306 0.00552865 0)
(0.99346 0.00452768 0)
(1.00599 -0.00102811 0)
(1.0002 -0.000535327 0)
(0.997476 -3.531e-06 0)
(0.999046 0.00240596 0)
(1.0003 -0.00341258 0)
(0.995125 0.00357366 0)
(1.00044 -0.002495 0)
(0.996632 0.00174706 0)
(0.998532 -8.59131e-05 0)
(0.999003 -3.46214e-05 0)
(0.998438 -9.53151e-05 0)
(0.998978 0.000999652 0)
(0.999529 -0.00043583 0)
(0.999009 0.00161954 0)
(0.999239 -0.000317001 0)
(0.998535 0.0025843 0)
(0.99776 0.000901373 0)
(0.996129 0.00473444 0)
(0.994964 0.00617474 0)
(0.996374 0.00449824 0)
(1.00494 -0.00105082 0)
(1.00175 -0.000460504 0)
(0.998479 -6.97097e-06 0)
(1.00113 0.00238012 0)
(1.00079 -0.00335189 0)
(0.99733 0.00352869 0)
(1.00143 -0.00245518 0)
(0.998493 0.00172279 0)
(0.999825 -0.000104468 0)
(1.00044 -2.51579e-05 0)
(0.999671 -0.000114078 0)
(1.00034 0.000984922 0)
(1.00068 -0.000431473 0)
(1.00026 0.00157416 0)
(1.00035 -0.000193419 0)
(0.999705 0.00245984 0)
(0.998872 0.00131142 0)
(0.997382 0.00463815 0)
(0.996298 0.00671442 0)
(0.997745 0.00445409 0)
(1.00451 -0.00106228 0)
(1.00235 -0.000400127 0)
(0.999084 -1.61909e-05 0)
(1.0022 0.00235888 0)
(1.00104 -0.00328982 0)
(0.99854 0.00347432 0)
(1.00194 -0.00240491 0)
(0.999545 0.00168621 0)
(1.00055 -0.000108645 0)
(1.00125 -2.69125e-05 0)
(1.00039 -0.000120794 0)
(1.00112 0.000953793 0)
(1.00136 -0.000404813 0)
(1.00098 0.00150502 0)
(1.00101 -4.02957e-05 0)
(1.00041 0.0023155 0)
(0.999564 0.001723 0)
(0.998214 0.00458759 0)
(0.997221 0.00713589 0)
(0.998337 0.0044008 0)
(1.00432 -0.00106533 0)
(1.00256 -0.000347854 0)
(0.999372 -2.79393e-05 0)
(1.00268 0.00233861 0)
(1.00114 -0.00322503 0)
(0.999129 0.00341133 0)
(1.00217 -0.0023451 0)
(1.00008 0.00163723 0)
(1.0009 -0.000100322 0)
(1.00166 -3.88626e-05 0)
(1.00077 -0.000112744 0)
(1.00151 0.000901564 0)
(1.00172 -0.000353291 0)
(1.00136 0.0014061 0)
(1.00137 0.000142773 0)
(1.00082 0.00217869 0)
(0.99999 0.00211176 0)
(0.99878 0.00459936 0)
(0.997881 0.00744478 0)
(0.998581 0.00434128 0)
(1.00421 -0.0010617 0)
(1.00262 -0.000300792 0)
(0.999493 -3.90719e-05 0)
(1.00284 0.00231633 0)
(1.00117 -0.00315593 0)
(0.999384 0.00334005 0)
(1.00224 -0.00227575 0)
(1.00034 0.00157476 0)
(1.00103 -7.77043e-05 0)
(1.00184 -6.56428e-05 0)
(1.00097 -8.78124e-05 0)
(1.00169 0.000828725 0)
(1.00191 -0.000282753 0)
(1.00156 0.00128264 0)
(1.00157 0.000345113 0)
(1.00106 0.00207117 0)
(1.00027 0.00245614 0)
(0.999196 0.00467379 0)
(0.998394 0.00765992 0)
(0.998685 0.00427672 0)
(1.00414 -0.00105208 0)
(1.00264 -0.000258158 0)
(0.999547 -4.72278e-05 0)
(1.00286 0.00228985 0)
(1.00118 -0.00308059 0)
(0.999484 0.0032596 0)
(1.00224 -0.00219495 0)
(1.00046 0.00149597 0)
(1.00107 -3.73406e-05 0)
(1.00191 -0.000114067 0)
(1.00107 -4.48941e-05 0)
(1.00177 0.000739421 0)
(1.00201 -0.000200679 0)
(1.00166 0.00115302 0)
(1.00169 0.000543261 0)
(1.00124 0.00199912 0)
(1.00048 0.00274663 0)
(0.999537 0.00479912 0)
(0.998831 0.00780593 0)
(0.99874 0.00420742 0)
(1.00407 -0.00103639 0)
(1.00264 -0.00022056 0)
(0.999582 -5.04243e-05 0)
(1.00283 0.00225727 0)
(1.00119 -0.00299699 0)
(0.999522 0.00316857 0)
(1.00223 -0.00210063 0)
(1.00053 0.00139998 0)
(1.00106 1.98495e-05 0)
(1.00195 -0.000180729 0)
(1.00113 1.25768e-05 0)
(1.00179 0.00063441 0)
(1.00206 -0.000107694 0)
(1.00172 0.00102839 0)
(1.00176 0.000720847 0)
(1.00137 0.00196993 0)
(1.00066 0.00299539 0)
(0.999843 0.00496351 0)
(0.999232 0.00790968 0)
(0.998776 0.00413333 0)
(1.004 -0.00101417 0)
(1.00264 -0.000188733 0)
(0.999611 -4.72055e-05 0)
(1.00277 0.00221716 0)
(1.00121 -0.00290381 0)
(0.999538 0.00306603 0)
(1.0022 -0.00199185 0)
(1.00059 0.00128697 0)
(1.00103 9.46517e-05 0)
(1.00196 -0.000266165 0)
(1.00117 8.44511e-05 0)
(1.00181 0.000517 0)
(1.00209 -1.26891e-05 0)
(1.00177 0.000921934 0)
(1.00183 0.00086436 0)
(1.0015 0.00198219 0)
(1.00084 0.00321043 0)
(1.00014 0.00514603 0)
(0.999615 0.00798793 0)
(0.998806 0.00405433 0)
(1.00393 -0.000985013 0)
(1.00264 -0.00016334 0)
(0.99964 -3.67833e-05 0)
(1.00271 0.00216857 0)
(1.00122 -0.00279996 0)
(0.999548 0.00295021 0)
(1.00216 -0.00186717 0)
(1.00064 0.00115491 0)
(1.001 0.000187361 0)
(1.00196 -0.000368382 0)
(1.0012 0.000165021 0)
(1.00181 0.00039575 0)
(1.00212 7.40595e-05 0)
(1.00182 0.000844255 0)
(1.00189 0.000972751 0)
(1.00163 0.0020295 0)
(1.00103 0.00339874 0)
(1.00042 0.0053294 0)
(0.999989 0.00805322 0)
(0.998835 0.00397019 0)
(1.00386 -0.000948206 0)
(1.00264 -0.000145879 0)
(0.999668 -1.74816e-05 0)
(1.00265 0.00210986 0)
(1.00124 -0.00268392 0)
(0.999556 0.00281924 0)
(1.00213 -0.0017244 0)
(1.00069 0.00100263 0)
(1.00096 0.000293317 0)
(1.00197 -0.000482454 0)
(1.00123 0.000244872 0)
(1.00181 0.00028074 0)
(1.00215 0.000134767 0)
(1.00187 0.000795769 0)
(1.00196 0.00105353 0)
(1.00177 0.00209978 0)
(1.00123 0.00356762 0)
(1.00072 0.00550233 0)
(1.00036 0.00811348 0)
(0.998863 0.00388074 0)
(1.00378 -0.000903263 0)
(1.00264 -0.000137216 0)
(0.999696 1.21699e-05 0)
(1.00259 0.00203953 0)
(1.00126 -0.00255335 0)
(0.999565 0.00267199 0)
(1.00208 -0.00156453 0)
(1.00074 0.00083381 0)
(1.00092 0.000408226 0)
(1.00197 -0.000602698 0)
(1.00126 0.000319038 0)
(1.00181 0.000182523 0)
(1.00217 0.000156759 0)
(1.00191 0.000774265 0)
(1.00204 0.00111803 0)
(1.00191 0.00217926 0)
(1.00144 0.00372262 0)
(1.00101 0.00565632 0)
(1.00072 0.00816789 0)
(0.998892 0.00378571 0)
(1.00371 -0.00084948 0)
(1.00264 -0.000138671 0)
(0.999723 5.33548e-05 0)
(1.00252 0.00195656 0)
(1.00127 -0.0024059 0)
(0.999575 0.00250832 0)
(1.00204 -0.00138889 0)
(1.00079 0.000650538 0)
(1.00087 0.00053031 0)
(1.00197 -0.000720731 0)
(1.00129 0.000370655 0)
(1.00181 0.000114303 0)
(1.00221 0.00014423 0)
(1.00197 0.000776511 0)
(1.00212 0.00117796 0)
(1.00207 0.00226013 0)
(1.00166 0.00387029 0)
(1.00131 0.00579282 0)
(1.00109 0.00821498 0)
(0.998921 0.00368495 0)
(1.00363 -0.000786283 0)
(1.00263 -0.000151634 0)
(0.99975 0.000107926 0)
(1.00245 0.00185766 0)
(1.00128 -0.0022422 0)
(0.999586 0.00233047 0)
(1.00199 -0.00119915 0)
(1.00084 0.000458029 0)
(1.00083 0.000652149 0)
(1.00197 -0.000827685 0)
(1.00132 0.000384486 0)
(1.0018 7.86954e-05 0)
(1.00225 0.000104391 0)
(1.00203 0.000792632 0)
(1.00221 0.0012396 0)
(1.00224 0.00233988 0)
(1.0019 0.00401441 0)
(1.00162 0.00592053 0)
(1.00146 0.00825477 0)
(0.998951 0.00357837 0)
(1.00355 -0.000713085 0)
(1.00263 -0.000176348 0)
(0.999776 0.000176397 0)
(1.00238 0.00174495 0)
(1.00129 -0.0020658 0)
(0.9996 0.00213984 0)
(1.00194 -0.00100055 0)
(1.0009 0.000266966 0)
(1.00079 0.000763251 0)
(1.00197 -0.000907527 0)
(1.00136 0.000356279 0)
(1.00179 7.30335e-05 0)
(1.00229 4.81078e-05 0)
(1.00209 0.00081201 0)
(1.00231 0.00130918 0)
(1.00242 0.00241879 0)
(1.00215 0.00415264 0)
(1.00194 0.00604423 0)
(1.00183 0.00828422 0)
(0.998982 0.00346564 0)
(1.00347 -0.000628438 0)
(1.00263 -0.000215239 0)
(0.999802 0.000259489 0)
(1.00232 0.00161959 0)
(1.0013 -0.00187653 0)
(0.999617 0.00193862 0)
(1.00189 -0.00080217 0)
(1.00095 8.19744e-05 0)
(1.00074 0.000851215 0)
(1.00196 -0.000951073 0)
(1.00141 0.000293005 0)
(1.00178 9.14608e-05 0)
(1.00233 -1.50771e-05 0)
(1.00217 0.000825963 0)
(1.00241 0.00139127 0)
(1.00262 0.00249466 0)
(1.00242 0.00427684 0)
(1.00226 0.00615991 0)
(1.0022 0.00829821 0)
(0.999013 0.0033467 0)
(1.00338 -0.000531569 0)
(1.00263 -0.000269298 0)
(0.999826 0.00035802 0)
(1.00225 0.00147949 0)
(1.00131 -0.00167448 0)
(0.999635 0.00173628 0)
(1.00183 -0.0006089 0)
(1.00101 -7.9919e-05 0)
(1.00071 0.000901028 0)
(1.00194 -0.000959711 0)
(1.00146 0.000199446 0)
(1.00177 0.000129553 0)
(1.00238 -7.20787e-05 0)
(1.00226 0.000830272 0)
(1.00253 0.00148794 0)
(1.00283 0.00257081 0)
(1.0027 0.00438544 0)
(1.00259 0.00626725 0)
(1.00258 0.0083005 0)
(0.999045 0.00322154 0)
(1.00329 -0.000421212 0)
(1.00263 -0.000339958 0)
(0.999849 0.000471241 0)
(1.00218 0.00132913 0)
(1.00131 -0.00146742 0)
(0.999655 0.00153812 0)
(1.00177 -0.000430291 0)
(1.00106 -0.000210978 0)
(1.00067 0.00091407 0)
(1.00192 -0.000933816 0)
(1.00151 8.34033e-05 0)
(1.00177 0.000174701 0)
(1.00243 -0.000105896 0)
(1.00237 0.000828891 0)
(1.00265 0.00159751 0)
(1.00304 0.00265148 0)
(1.003 0.00447739 0)
(1.00293 0.00636539 0)
(1.00295 0.00829765 0)
(0.999077 0.00309004 0)
(1.0032 -0.000296426 0)
(1.00263 -0.000426563 0)
(0.999871 0.000595595 0)
(1.00211 0.00117616 0)
(1.00131 -0.00126292 0)
(0.999675 0.00135316 0)
(1.00171 -0.000281045 0)
(1.00111 -0.000314451 0)
(1.00064 0.000895502 0)
(1.00189 -0.000883275 0)
(1.00157 -3.57097e-05 0)
(1.00176 0.000208347 0)
(1.00247 -0.000109374 0)
(1.00249 0.000833341 0)
(1.00279 0.00171991 0)
(1.00327 0.00274144 0)
(1.00331 0.0045509 0)
(1.00327 0.00645061 0)
(1.00333 0.0082957 0)
(0.999111 0.00295266 0)
(1.0031 -0.000157016 0)
(1.00263 -0.00052816 0)
(0.999891 0.000727709 0)
(1.00204 0.00102118 0)
(1.00131 -0.0010736 0)
(0.999695 0.00119129 0)
(1.00165 -0.000164859 0)
(1.00116 -0.000385439 0)
(1.00062 0.000845875 0)
(1.00185 -0.000824185 0)
(1.00163 -0.00014178 0)
(1.00177 0.000232686 0)
(1.00252 -8.10142e-05 0)
(1.00262 0.000854813 0)
(1.00294 0.00185599 0)
(1.0035 0.00284717 0)
(1.00364 0.00460748 0)
(1.00363 0.0065187 0)
(1.0037 0.00829888 0)
(0.999146 0.00280883 0)
(1.003 -1.04986e-06 0)
(1.00262 -0.000643963 0)
(0.999909 0.000863786 0)
(1.00197 0.000872779 0)
(1.00131 -0.000898901 0)
(0.999713 0.00106313 0)
(1.00159 -8.30508e-05 0)
(1.0012 -0.000421846 0)
(1.0006 0.000777579 0)
(1.00181 -0.000759712 0)
(1.00169 -0.000230836 0)
(1.00178 0.000257396 0)
(1.00257 -2.16138e-05 0)
(1.00277 0.000895899 0)
(1.0031 0.00200154 0)
(1.00373 0.00297065 0)
(1.00397 0.00465031 0)
(1.004 0.00656271 0)
(1.00407 0.00830281 0)
(0.999181 0.00265946 0)
(1.00289 0.000167905 0)
(1.00262 -0.000766191 0)
(0.999927 0.000996333 0)
(1.00189 0.00073872 0)
(1.00131 -0.000749467 0)
(0.999728 0.000973791 0)
(1.00153 -3.16399e-05 0)
(1.00124 -0.000432399 0)
(1.00058 0.000708174 0)
(1.00176 -0.000691272 0)
(1.00175 -0.000296641 0)
(1.0018 0.000290772 0)
(1.00263 7.04565e-05 0)
(1.00293 0.000955271 0)
(1.00328 0.00215241 0)
(1.00397 0.00311015 0)
(1.00432 0.00468479 0)
(1.00438 0.00657687 0)
(1.00444 0.008296 0)
(0.999216 0.00250554 0)
(1.00278 0.000346323 0)
(1.00262 -0.000891403 0)
(0.999944 0.00111598 0)
(1.00181 0.000628825 0)
(1.00131 -0.00064219 0)
(0.999741 0.000917816 0)
(1.00147 -5.79356e-06 0)
(1.00127 -0.000437355 0)
(1.00056 0.000643123 0)
(1.00172 -0.000627985 0)
(1.00182 -0.000338501 0)
(1.00183 0.000344385 0)
(1.00268 0.000185462 0)
(1.0031 0.00101835 0)
(1.00347 0.00229698 0)
(1.0042 0.00325841 0)
(1.00466 0.00471553 0)
(1.00477 0.00655981 0)
(1.00481 0.00826521 0)
(0.999253 0.00234721 0)
(1.00265 0.00053128 0)
(1.00261 -0.00101196 0)
(0.999961 0.00120983 0)
(1.00173 0.000554959 0)
(1.00131 -0.000567976 0)
(0.99975 0.000890432 0)
(1.0014 5.31739e-06 0)
(1.0013 -0.000437007 0)
(1.00055 0.000592095 0)
(1.00167 -0.000566938 0)
(1.00188 -0.000358442 0)
(1.00187 0.000421765 0)
(1.00274 0.000324497 0)
(1.00328 0.00108559 0)
(1.00367 0.00242939 0)
(1.00444 0.00341154 0)
(1.005 0.00474749 0)
(1.00517 0.00651458 0)
(1.00519 0.00820107 0)
(0.99929 0.00218634 0)
(1.00252 0.000716862 0)
(1.0026 -0.00111662 0)
(0.999979 0.00127202 0)
(1.00164 0.000510925 0)
(1.00131 -0.000522977 0)
(0.999757 0.000882577 0)
(1.00134 1.0535e-05 0)
(1.00132 -0.000431758 0)
(1.00054 0.000567989 0)
(1.00161 -0.000494065 0)
(1.00195 -0.00035249 0)
(1.00193 0.000521259 0)
(1.0028 0.00049789 0)
(1.00346 0.00116653 0)
(1.00389 0.00254347 0)
(1.00467 0.00356178 0)
(1.00534 0.00477804 0)
(1.00558 0.00643854 0)
(1.00557 0.00809318 0)
(0.999328 0.0020253 0)
(1.00239 0.000894679 0)
(1.00258 -0.00120139 0)
(0.999998 0.00130344 0)
(1.00155 0.000493203 0)
(1.00132 -0.000503291 0)
(0.999762 0.000887101 0)
(1.00126 2.03583e-05 0)
(1.00135 -0.00043576 0)
(1.00053 0.000564148 0)
(1.00156 -0.000399136 0)
(1.00202 -0.000329092 0)
(1.002 0.000636584 0)
(1.00285 0.000700078 0)
(1.00364 0.00125982 0)
(1.00413 0.00263129 0)
(1.00491 0.00370177 0)
(1.00566 0.00480806 0)
(1.00599 0.00633395 0)
(1.00596 0.00793701 0)
(0.999366 0.00186249 0)
(1.00224 0.00106942 0)
(1.00256 -0.00125549 0)
(1.00002 0.00130569 0)
(1.00145 0.000505752 0)
(1.00132 -0.000500569 0)
(0.999766 0.000899306 0)
(1.00119 4.28409e-05 0)
(1.00138 -0.00044375 0)
(1.00052 0.000578597 0)
(1.0015 -0.00027354 0)
(1.0021 -0.000287255 0)
(1.00208 0.000757382 0)
(1.00291 0.000926792 0)
(1.00382 0.00137241 0)
(1.00438 0.00269455 0)
(1.00515 0.00382613 0)
(1.00596 0.0048432 0)
(1.00638 0.00621023 0)
(1.00637 0.00773312 0)
(0.999405 0.00170098 0)
(1.00209 0.00123266 0)
(1.00253 -0.00127224 0)
(1.00004 0.00127746 0)
(1.00134 0.000538678 0)
(1.00131 -0.000510484 0)
(0.999771 0.000913446 0)
(1.0011 7.69887e-05 0)
(1.0014 -0.000450803 0)
(1.00053 0.000611871 0)
(1.00144 -0.000114099 0)
(1.00218 -0.000222431 0)
(1.00219 0.000868932 0)
(1.00297 0.00116819 0)
(1.00399 0.00150992 0)
(1.00464 0.00273768 0)
(1.00539 0.00392529 0)
(1.00625 0.00488646 0)
(1.00676 0.00608368 0)
(1.00677 0.00749199 0)
(0.999444 0.00154356 0)
(1.00194 0.00137244 0)
(1.00248 -0.00125854 0)
(1.00007 0.00122635 0)
(1.00123 0.000577106 0)
(1.00131 -0.000529851 0)
(0.999779 0.000925579 0)
(1.00101 0.000136751 0)
(1.00143 -0.000463125 0)
(1.00054 0.000654764 0)
(1.00138 7.8822e-05 0)
(1.00226 -0.00012943 0)
(1.00231 0.000958837 0)
(1.00303 0.00140776 0)
(1.00414 0.00167284 0)
(1.00491 0.00277139 0)
(1.00565 0.00399174 0)
(1.00652 0.00493332 0)
(1.00712 0.00597117 0)
(1.00716 0.0072334 0)
(0.999484 0.00138882 0)
(1.00179 0.00149224 0)
(1.00243 -0.00122215 0)
(1.0001 0.0011657 0)
(1.00112 0.000632424 0)
(1.00131 -0.000557908 0)
(0.999792 0.000932499 0)
(1.00092 0.000224374 0)
(1.00146 -0.00047367 0)
(1.00058 0.000705141 0)
(1.00132 0.000308065 0)
(1.00233 -1.34683e-05 0)
(1.00245 0.00102593 0)
(1.0031 0.00162992 0)
(1.00428 0.00185498 0)
(1.00517 0.0028038 0)
(1.00593 0.0040189 0)
(1.00679 0.00496537 0)
(1.00744 0.00587255 0)
(1.00754 0.00697022 0)
(0.999523 0.00124026 0)
(1.00163 0.00158838 0)
(1.00237 -0.00116616 0)
(1.00013 0.00110387 0)
(1.001 0.000700759 0)
(1.0013 -0.000594623 0)
(0.999812 0.000923847 0)
(1.00081 0.000344314 0)
(1.00148 -0.000466253 0)
(1.00063 0.000745354 0)
(1.00126 0.000571098 0)
(1.00238 0.000130595 0)
(1.00261 0.00107799 0)
(1.00319 0.00182206 0)
(1.00441 0.0020465 0)
(1.00542 0.00283947 0)
(1.00621 0.00400853 0)
(1.00705 0.00496934 0)
(1.00774 0.00578336 0)
(1.00789 0.00671767 0)
(0.999563 0.00109609 0)
(1.00147 0.00166822 0)
(1.0023 -0.00109572 0)
(1.00016 0.00104577 0)
(1.00087 0.000780837 0)
(1.00128 -0.000628829 0)
(0.999845 0.000899011 0)
(1.00071 0.000499202 0)
(1.0015 -0.000423523 0)
(1.00071 0.000751519 0)
(1.00121 0.000841869 0)
(1.00242 0.000331045 0)
(1.00277 0.00113834 0)
(1.0033 0.00198614 0)
(1.00452 0.00224149 0)
(1.00566 0.00288088 0)
(1.00651 0.00396488 0)
(1.00731 0.00493559 0)
(1.00801 0.00569207 0)
(1.00821 0.00648136 0)
(0.999602 0.000956363 0)
(1.00132 0.00173281 0)
(1.00222 -0.00101363 0)
(1.00019 0.000969711 0)
(1.00074 0.000894532 0)
(1.00126 -0.000656196 0)
(0.999892 0.000836113 0)
(1.0006 0.000676858 0)
(1.00151 -0.000336501 0)
(1.0008 0.000736675 0)
(1.00118 0.00109165 0)
(1.00244 0.000589607 0)
(1.00294 0.00122262 0)
(1.00343 0.00212537 0)
(1.00463 0.00243219 0)
(1.00588 0.00292881 0)
(1.0068 0.00389372 0)
(1.00759 0.00485835 0)
(1.00827 0.00558469 0)
(1.00849 0.00625668 0)
(0.99964 0.000825963 0)
(1.00117 0.00177915 0)
(1.00213 -0.000924535 0)
(1.00023 0.000875196 0)
(1.00061 0.00103188 0)
(1.00123 -0.000660008 0)
(0.999955 0.000727287 0)
(1.0005 0.000869675 0)
(1.0015 -0.000197721 0)
(1.00092 0.000727209 0)
(1.00117 0.00130509 0)
(1.00245 0.000874472 0)
(1.0031 0.00132645 0)
(1.00358 0.00223563 0)
(1.00473 0.00260836 0)
(1.00607 0.00298674 0)
(1.00709 0.00380722 0)
(1.00787 0.00474111 0)
(1.00851 0.00545441 0)
(1.00874 0.00604018 0)
(0.999677 0.000703149 0)
(1.00102 0.00180683 0)
(1.00202 -0.000820106 0)
(1.00028 0.000768429 0)
(1.00047 0.00118245 0)
(1.00117 -0.000609858 0)
(1.00003 0.000588179 0)
(1.00042 0.00105075 0)
(1.00147 -1.39496e-06 0)
(1.00104 0.000744374 0)
(1.00118 0.00148416 0)
(1.00245 0.00115813 0)
(1.00324 0.00144906 0)
(1.00374 0.00232331 0)
(1.00483 0.00276689 0)
(1.00623 0.00305835 0)
(1.00735 0.00371608 0)
(1.00815 0.00458476 0)
(1.00875 0.00528914 0)
(1.00896 0.00581804 0)
(0.999713 0.000591324 0)
(1.00087 0.00181038 0)
(1.00191 -0.000689302 0)
(1.00033 0.000627613 0)
(1.00035 0.00133659 0)
(1.0011 -0.000477873 0)
(1.00013 0.000438285 0)
(1.00037 0.00117539 0)
(1.00143 0.000250525 0)
(1.00116 0.000804473 0)
(1.00122 0.00163974 0)
(1.00244 0.00143115 0)
(1.00337 0.00158964 0)
(1.0039 0.00239407 0)
(1.00493 0.00290213 0)
(1.00636 0.00314221 0)
(1.00759 0.00363325 0)
(1.00843 0.0043977 0)
(1.00899 0.00508329 0)
(1.00916 0.00557849 0)
(0.999748 0.000494316 0)
(1.00073 0.00178103 0)
(1.00178 -0.000521437 0)
(1.00039 0.000456182 0)
(1.00023 0.00145658 0)
(1.00099 -0.000263405 0)
(1.00021 0.000319166 0)
(1.00034 0.00123592 0)
(1.00138 0.00053374 0)
(1.00128 0.000918344 0)
(1.00129 0.00178956 0)
(1.00243 0.00169746 0)
(1.00347 0.00174429 0)
(1.00408 0.00244775 0)
(1.00504 0.00300337 0)
(1.00647 0.00322809 0)
(1.00779 0.00356927 0)
(1.00869 0.00419521 0)
(1.00923 0.00483749 0)
(1.00935 0.00531009 0)
(0.99978 0.000409898 0)
(1.0006 0.00172269 0)
(1.00164 -0.000330412 0)
(1.00044 0.000290059 0)
(1.00014 0.00153989 0)
(1.00087 -1.53328e-06 0)
(1.00029 0.000245987 0)
(1.00034 0.00123776 0)
(1.00134 0.000789632 0)
(1.00138 0.00106032 0)
(1.00136 0.00193788 0)
(1.00241 0.00196703 0)
(1.00355 0.0019233 0)
(1.00424 0.00249805 0)
(1.00516 0.00307234 0)
(1.00655 0.00330653 0)
(1.00794 0.00352915 0)
(1.00892 0.00399689 0)
(1.00946 0.00456047 0)
(1.00953 0.00500531 0)
(0.99981 0.000340367 0)
(1.00049 0.00164097 0)
(1.00149 -0.00014303 0)
(1.0005 0.000168249 0)
(1.00007 0.00154583 0)
(1.00073 0.000322076 0)
(1.00035 0.000269066 0)
(1.00037 0.00121958 0)
(1.00131 0.0010015 0)
(1.00148 0.00121277 0)
(1.00146 0.00207663 0)
(1.0024 0.00223007 0)
(1.00361 0.00212856 0)
(1.0044 0.00255759 0)
(1.00528 0.00311352 0)
(1.00662 0.00336743 0)
(1.00804 0.00350728 0)
(1.00911 0.00381958 0)
(1.00967 0.00427089 0)
(1.0097 0.00466837 0)
(0.999837 0.000283675 0)
(1.00038 0.00153947 0)
(1.00133 4.34023e-05 0)
(1.00054 8.4217e-05 0)
(1.00004 0.00146679 0)
(1.00059 0.000666605 0)
(1.00038 0.000410175 0)
(1.00041 0.00120745 0)
(1.0013 0.00117426 0)
(1.00158 0.00137005 0)
(1.00156 0.0022077 0)
(1.0024 0.00247719 0)
(1.00363 0.00235324 0)
(1.00453 0.00263345 0)
(1.00541 0.00313175 0)
(1.00668 0.00340125 0)
(1.00811 0.00349082 0)
(1.00924 0.00366788 0)
(1.00985 0.00398839 0)
(1.00985 0.00431151 0)
(0.999862 0.000241098 0)
(1.00029 0.00141368 0)
(1.00117 0.000234447 0)
(1.00057 4.55844e-05 0)
(1.00003 0.00135566 0)
(1.00047 0.000949103 0)
(1.00037 0.000635207 0)
(1.00045 0.00122259 0)
(1.0013 0.00130527 0)
(1.00168 0.00150244 0)
(1.00169 0.00231917 0)
(1.00241 0.00270209 0)
(1.00363 0.00258996 0)
(1.00462 0.00272879 0)
(1.00552 0.00313533 0)
(1.00673 0.00340259 0)
(1.00814 0.00346727 0)
(1.00932 0.00353764 0)
(1.00997 0.00372823 0)
(1.00998 0.00395553 0)
(0.999884 0.000212608 0)
(1.00022 0.001272 0)
(1.00101 0.000408207 0)
(1.00058 7.1507e-05 0)
(1.00005 0.00123752 0)
(1.00038 0.00115435 0)
(1.00035 0.000903913 0)
(1.00047 0.00132942 0)
(1.0013 0.00142674 0)
(1.00178 0.00161564 0)
(1.00183 0.00239945 0)
(1.00243 0.00289368 0)
(1.00361 0.00283098 0)
(1.00468 0.00284652 0)
(1.00562 0.00313338 0)
(1.00678 0.00336992 0)
(1.00814 0.00341985 0)
(1.00934 0.00341329 0)
(1.01004 0.00348717 0)
(1.01006 0.0036116 0)
(0.999904 0.000191103 0)
(1.00016 0.00114014 0)
(1.00087 0.000545526 0)
(1.00058 0.000137423 0)
(1.00009 0.00113558 0)
(1.00032 0.00128821 0)
(1.00033 0.00116549 0)
(1.00048 0.0015145 0)
(1.0013 0.00156649 0)
(1.00188 0.00172636 0)
(1.00198 0.00245275 0)
(1.00249 0.00304311 0)
(1.00358 0.00306771 0)
(1.0047 0.0029982 0)
(1.00569 0.00314742 0)
(1.00682 0.00331816 0)
(1.00813 0.00334364 0)
(1.00933 0.00328109 0)
(1.01006 0.0032564 0)
(1.01009 0.00328184 0)
(0.999921 0.000174906 0)
(1.00012 0.00101499 0)
(1.00073 0.000655487 0)
(1.00056 0.000240352 0)
(1.00014 0.00104971 0)
(1.00029 0.00136421 0)
(1.00032 0.00140287 0)
(1.00049 0.00173069 0)
(1.00129 0.00174519 0)
(1.00196 0.00183751 0)
(1.00215 0.00248573 0)
(1.00257 0.00314197 0)
(1.00355 0.00327774 0)
(1.00468 0.00317588 0)
(1.00572 0.00319417 0)
(1.00683 0.00326513 0)
(1.00809 0.00324393 0)
(1.00927 0.00313058 0)
(1.01001 0.00302592 0)
(1.01006 0.00296166 0)
(0.999936 0.000166127 0)
(1.00008 0.000898612 0)
(1.00062 0.000724598 0)
(1.00053 0.000374034 0)
(1.00018 0.00100284 0)
(1.00029 0.00139292 0)
(1.00033 0.00160031 0)
(1.00049 0.00195425 0)
(1.00127 0.00197528 0)
(1.00203 0.00196713 0)
(1.00232 0.00251035 0)
(1.00269 0.0031866 0)
(1.00355 0.00344335 0)
(1.00463 0.00335889 0)
(1.00569 0.00327918 0)
(1.0068 0.00323303 0)
(1.00803 0.00313714 0)
(1.00917 0.00296335 0)
(1.00992 0.00278751 0)
(1.00999 0.00264353 0)
(0.999948 0.000159065 0)
(1.00006 0.000806502 0)
(1.00052 0.000759584 0)
(1.00049 0.000500855 0)
(1.00022 0.00101251 0)
(1.00032 0.0014046 0)
(1.00037 0.00172819 0)
(1.00051 0.00215969 0)
(1.00124 0.00223801 0)
(1.00207 0.00213979 0)
(1.00248 0.00254335 0)
(1.00284 0.00318487 0)
(1.00357 0.00355034 0)
(1.00457 0.00352672 0)
(1.00562 0.00339111 0)
(1.00672 0.00323664 0)
(1.00791 0.00304293 0)
(1.00903 0.00279096 0)
(1.00978 0.00253925 0)
(1.00986 0.00232068 0)
(0.999959 0.000152144 0)
(1.00004 0.000731071 0)
(1.00044 0.000784922 0)
(1.00046 0.00061352 0)
(1.00025 0.00105286 0)
(1.00035 0.00143289 0)
(1.00043 0.00179762 0)
(1.00055 0.0023149 0)
(1.0012 0.002493 0)
(1.00207 0.00235771 0)
(1.00261 0.00259962 0)
(1.003 0.00315777 0)
(1.00363 0.00358686 0)
(1.00452 0.00365358 0)
(1.00552 0.00350979 0)
(1.00659 0.00327285 0)
(1.00774 0.00297766 0)
(1.00883 0.00262998 0)
(1.00958 0.00229222 0)
(1.00967 0.00199721 0)
(0.999968 0.000148207 0)
(1.00003 0.000667687 0)
(1.00038 0.000796234 0)
(1.00044 0.00072173 0)
(1.00029 0.00110956 0)
(1.00039 0.00147185 0)
(1.00051 0.00184792 0)
(1.00062 0.00241436 0)
(1.00118 0.00270632 0)
(1.00205 0.00260286 0)
(1.00271 0.00269384 0)
(1.00315 0.00312748 0)
(1.00372 0.00356207 0)
(1.00449 0.00371338 0)
(1.00539 0.00360804 0)
(1.0064 0.00332437 0)
(1.0075 0.0029426 0)
(1.00856 0.00249424 0)
(1.00931 0.00206042 0)
(1.00943 0.00168536 0)
(0.999975 0.00014495 0)
(1.00003 0.000626462 0)
(1.00033 0.000793446 0)
(1.00042 0.000807691 0)
(1.00031 0.00118791 0)
(1.00044 0.00151945 0)
(1.0006 0.0018852 0)
(1.00071 0.00246839 0)
(1.00119 0.00286647 0)
(1.00201 0.0028374 0)
(1.00275 0.00282762 0)
(1.00329 0.00310839 0)
(1.00382 0.00349679 0)
(1.00449 0.00370039 0)
(1.00527 0.00365634 0)
(1.00618 0.0033733 0)
(1.0072 0.00293009 0)
(1.00822 0.00239369 0)
(1.00897 0.00185856 0)
(1.00912 0.00139855 0)
(0.999982 0.000140001 0)
(1.00002 0.000599405 0)
(1.00029 0.000800319 0)
(1.00041 0.000863565 0)
(1.00034 0.00126318 0)
(1.00047 0.00159522 0)
(1.00069 0.00191786 0)
(1.00083 0.00247298 0)
(1.00123 0.00297135 0)
(1.00198 0.00303625 0)
(1.00276 0.00298386 0)
(1.00338 0.0031173 0)
(1.00393 0.00340937 0)
(1.00452 0.00362435 0)
(1.00517 0.00363566 0)
(1.00594 0.00339542 0)
(1.00684 0.00293238 0)
(1.00779 0.00233038 0)
(1.00853 0.00170584 0)
(1.00874 0.00115303 0)
(0.999987 0.000138848 0)
(1.00002 0.000575403 0)
(1.00026 0.000813325 0)
(1.0004 0.000911058 0)
(1.00038 0.00131399 0)
(1.00051 0.00167753 0)
(1.00076 0.00197484 0)
(1.00096 0.00244878 0)
(1.00131 0.00300057 0)
(1.00196 0.00318816 0)
(1.00273 0.00313985 0)
(1.00342 0.00315621 0)
(1.00401 0.00332578 0)
(1.00455 0.00349957 0)
(1.0051 0.00354855 0)
(1.0057 0.00336385 0)
(1.00646 0.0029355 0)
(1.0073 0.00230305 0)
(1.00801 0.00161479 0)
(1.00827 0.000974298 0)
(0.99999 0.000140334 0)
(1.00002 0.00055697 0)
(1.00023 0.000826341 0)
(1.0004 0.000952705 0)
(1.00042 0.00135564 0)
(1.00055 0.00174205 0)
(1.00082 0.00203898 0)
(1.00108 0.00243744 0)
(1.00141 0.0029639 0)
(1.00196 0.00326158 0)
(1.00269 0.0032762 0)
(1.0034 0.00321286 0)
(1.00404 0.00326136 0)
(1.00458 0.00335361 0)
(1.00504 0.00340231 0)
(1.0055 0.00327197 0)
(1.00607 0.00290713 0)
(1.00676 0.00230312 0)
(1.00741 0.0015806 0)
(1.00771 0.000875936 0)
(0.999992 0.000143275 0)
(1.00002 0.000539213 0)
(1.00021 0.00084695 0)
(1.0004 0.00098723 0)
(1.00047 0.00138127 0)
(1.00059 0.00179822 0)
(1.00088 0.00209452 0)
(1.00118 0.00243227 0)
(1.00152 0.00290113 0)
(1.002 0.00325411 0)
(1.00264 0.00335461 0)
(1.00335 0.00327939 0)
(1.00402 0.00321617 0)
(1.00457 0.00321447 0)
(1.00499 0.00321919 0)
(1.00532 0.0031223 0)
(1.0057 0.00282898 0)
(1.00621 0.00229156 0)
(1.00675 0.00158596 0)
(1.00706 0.000839746 0)
(0.999993 0.000149659 0)
(1.00003 0.00052086 0)
(1.00019 0.000865348 0)
(1.0004 0.00102847 0)
(1.00052 0.0013879 0)
(1.00065 0.00182723 0)
(1.00092 0.00215038 0)
(1.00127 0.00243232 0)
(1.00163 0.0028206 0)
(1.00206 0.00319223 0)
(1.00262 0.00335816 0)