/*--------------------------------*- C++ -*----------------------------------*\
| =========                 |                                                 |
| \\      /  F ield         | OpenFOAM: The Open Source CFD Toolbox           |
|  \\    /   O peration     | Version:  v2012                                 |
|   \\  /    A nd           | Website:  www.openfoam.com                      |
|    \\/     M anipulation  |                                                 |
\*---------------------------------------------------------------------------*/
FoamFile
{
    version     2.0;
    format      ascii;
    class       surfaceScalarField;
    location    "0.55";
    object      phi;
}
// * * * * * * * * * * * * * * * * * * * * * * * * * * * * * * * * * * * * * //

dimensions      [0 3 -1 0 0 0 0];
oriented        oriented;


internalField   nonuniform List<scalar> 
34900
(
1.1716e-06
1.0059e-07
1.16594e-06
-2.39267e-07
1.16988e-06
2.68271e-07
1.15762e-06
-3.69863e-07
1.16829e-06
4.25805e-07
1.14911e-06
-3.43637e-07
1.16141e-06
2.12993e-07
1.1487e-06
-3.58165e-08
1.1555e-06
-2.42996e-08
1.14876e-06
5.02934e-08
1.15537e-06
1.59792e-08
1.147e-06
-3.84197e-10
1.15443e-06
5.08328e-08
1.14442e-06
-1.5246e-08
1.1529e-06
6.99425e-08
1.13961e-06
-3.89029e-08
1.14942e-06
9.05882e-08
1.13176e-06
-4.92794e-08
1.13898e-06
9.94972e-08
-3.66446e-08
1.09428e-06
1.22554e-06
9.93127e-08
1.2211e-06
-2.34833e-07
1.22248e-06
2.66895e-07
1.21159e-06
-3.58973e-07
1.21869e-06
4.18707e-07
1.20225e-06
-3.27195e-07
1.21052e-06
2.04719e-07
1.20389e-06
-2.91875e-08
1.20665e-06
-2.70549e-08
1.20646e-06
5.04851e-08
1.20787e-06
1.45683e-08
1.20658e-06
8.99433e-10
1.20597e-06
5.14452e-08
1.20645e-06
-1.57286e-08
1.2024e-06
7.39956e-08
1.20499e-06
-4.14889e-08
1.19549e-06
1.00087e-07
1.2013e-06
-5.50875e-08
1.18047e-06
1.20324e-07
-3.47908e-08
1.17861e-06
1.2811e-06
1.00998e-07
1.27904e-06
-2.32772e-07
1.27747e-06
2.6846e-07
1.2687e-06
-3.50198e-07
1.2721e-06
4.15304e-07
1.26006e-06
-3.15158e-07
1.26247e-06
2.02314e-07
1.26381e-06
-3.05298e-08
1.26053e-06
-2.37732e-08
1.26743e-06
4.35879e-08
1.26311e-06
1.88805e-08
1.26869e-06
-4.67127e-09
1.26223e-06
5.78962e-08
1.26865e-06
-2.21465e-08
1.26095e-06
8.17009e-08
1.26622e-06
-4.67612e-08
1.25884e-06
1.07467e-07
1.26038e-06
-5.66276e-08
1.25295e-06
1.27754e-07
-1.81025e-08
1.23626e-06
1.33921e-06
1.05889e-07
1.34004e-06
-2.33604e-07
1.33599e-06
2.72512e-07
1.33003e-06
-3.44235e-07
1.33068e-06
4.14649e-07
1.32367e-06
-3.08148e-07
1.32102e-06
2.04963e-07
1.3283e-06
-3.78101e-08
1.32113e-06
-1.65937e-08
1.33035e-06
3.43679e-08
1.32498e-06
2.42434e-08
1.33134e-06
-1.1027e-08
1.32598e-06
6.3258e-08
1.33096e-06
-2.71275e-08
1.32718e-06
8.54737e-08
1.32876e-06
-4.83366e-08
1.32751e-06
1.08713e-07
1.32376e-06
-5.28736e-08
1.32303e-06
1.28479e-07
1.85911e-09
1.30307e-06
1.40108e-06
1.13165e-07
1.404e-06
-2.36524e-07
1.39892e-06
2.77587e-07
1.39532e-06
-3.40631e-07
1.39522e-06
4.14746e-07
1.39172e-06
-3.04649e-07
1.38737e-06
2.09315e-07
1.39619e-06
-4.66235e-08
1.38907e-06
-9.47866e-09
1.39655e-06
2.68877e-08
1.39331e-06
2.74836e-08
1.39755e-06
-1.52666e-08
1.39518e-06
6.56287e-08
1.3977e-06
-2.96498e-08
1.39702e-06
8.61545e-08
1.39639e-06
-4.77061e-08
1.3975e-06
1.07602e-07
1.39174e-06
-4.71124e-08
1.39289e-06
1.27335e-07
2.18611e-08
1.37288e-06
1.46768e-06
1.21166e-07
1.47108e-06
-2.39927e-07
1.46665e-06
2.82014e-07
1.46426e-06
-3.38242e-07
1.46513e-06
4.13881e-07
1.46297e-06
-3.02495e-07
1.45989e-06
2.12398e-07
1.46698e-06
-5.3718e-08
1.46203e-06
-4.52366e-09
1.46693e-06
2.19898e-08
1.46569e-06
2.87193e-08
1.46818e-06
-1.77603e-08
1.46757e-06
6.62463e-08
1.46882e-06
-3.09006e-08
1.46934e-06
8.56307e-08
1.46771e-06
-4.60719e-08
1.46978e-06
1.05531e-07
1.46255e-06
-3.98822e-08
1.4651e-06
1.24784e-07
4.18408e-08
1.44512e-06
1.53926e-06
1.28126e-07
1.54169e-06
-2.42366e-07
1.53895e-06
2.84759e-07
1.5367e-06
-3.35995e-07
1.53914e-06
4.11444e-07
1.53683e-06
-3.00186e-07
1.53607e-06
2.13159e-07
1.54047e-06
-5.81142e-08
1.53756e-06
-1.62057e-09
1.54075e-06
1.88066e-08
1.54037e-06
2.90958e-08
1.54202e-06
-1.94136e-08
1.5421e-06
6.61678e-08
1.54273e-06
-3.15263e-08
1.54385e-06
8.45111e-08
1.54135e-06
-4.3576e-08
1.5443e-06
1.02583e-07
1.53555e-06
-3.11301e-08
1.53932e-06
1.21011e-07
6.13845e-08
1.51977e-06
1.61528e-06
1.32972e-07
1.61611e-06
-2.43196e-07
1.61518e-06
2.85697e-07
1.6125e-06
-3.33319e-07
1.61625e-06
4.07695e-07
1.6132e-06
-2.97133e-07
1.6144e-06
2.1196e-07
1.61651e-06
-6.02247e-08
1.61482e-06
7.10651e-11
1.61712e-06
1.64977e-08
1.61696e-06
2.92602e-08
1.61819e-06
-2.06399e-08
1.61862e-06
6.57322e-08
1.61875e-06
-3.16521e-08
1.62044e-06
8.28186e-08
1.61701e-06
-4.01464e-08
1.62086e-06
9.87308e-08
1.61071e-06
-2.09821e-08
1.61532e-06
1.16404e-07
7.98897e-08
1.59682e-06
1.69496e-06
1.35588e-07
1.69433e-06
-2.42563e-07
1.69476e-06
2.85263e-07
1.69152e-06
-3.30084e-07
1.69612e-06
4.03097e-07
1.69226e-06
-2.93271e-07
1.69471e-06
2.0951e-07
1.69526e-06
-6.07751e-08
1.69417e-06
1.16085e-09
1.69596e-06
1.47048e-08
1.6959e-06
2.93276e-08
1.69677e-06
-2.15161e-08
1.69755e-06
6.49515e-08
1.69714e-06
-3.12418e-08
1.69951e-06
8.0456e-08
1.69509e-06
-3.57333e-08
1.69981e-06
9.40101e-08
1.68854e-06
-9.70637e-09
1.69352e-06
1.11425e-07
9.67956e-08
1.67661e-06
1.7778e-06
1.36505e-07
1.77622e-06
-2.40974e-07
1.7775e-06
2.83973e-07
1.77376e-06
-3.26341e-07
1.77894e-06
3.97922e-07
1.77435e-06
-2.8868e-07
1.77757e-06
2.0629e-07
1.77709e-06
-6.03021e-08
1.77638e-06
1.87765e-09
1.77772e-06
1.33612e-08
1.77785e-06
2.9197e-08
1.77834e-06
-2.20081e-08
1.77956e-06
6.37356e-08
1.77854e-06
-3.02227e-08
1.78167e-06
7.73246e-08
1.77627e-06
-3.03372e-08
1.78174e-06
8.85463e-08
1.76971e-06
2.31845e-09
1.77455e-06
1.0659e-07
1.11627e-07
1.75972e-06
1.86385e-06
1.36405e-07
1.86177e-06
-2.38895e-07
1.86357e-06
2.82172e-07
1.85938e-06
-3.22152e-07
1.86507e-06
3.92234e-07
1.85981e-06
-2.83424e-07
1.86362e-06
2.02485e-07
1.8624e-06
-5.90803e-08
1.86206e-06
2.21702e-09
1.86292e-06
1.24984e-08
1.86339e-06
2.8723e-08
1.86344e-06
-2.20522e-08
1.86521e-06
6.19678e-08
1.86351e-06
-2.85267e-08
1.86746e-06
7.33691e-08
1.86116e-06
-2.40342e-08
1.86714e-06
8.25685e-08
1.85483e-06
1.46293e-08
1.859e-06
1.02418e-07
1.2403e-07
1.8466e-06
1.95344e-06
1.35802e-07
1.95114e-06
-2.36595e-07
1.9533e-06
2.80018e-07
1.94868e-06
-3.17537e-07
1.95491e-06
3.86008e-07
1.94901e-06
-2.77522e-07
1.95339e-06
1.98103e-07
1.9515e-06
-5.71961e-08
1.95164e-06
2.08136e-09
1.95196e-06
1.21732e-08
1.95292e-06
2.77677e-08
1.95244e-06
-2.15773e-08
1.95487e-06
5.95412e-08
1.95246e-06
-2.61147e-08
1.95722e-06
6.86079e-08
1.95018e-06
-1.69984e-08
1.95635e-06
7.6407e-08
1.94425e-06
2.67262e-08
1.94732e-06
9.93473e-08
1.33836e-07
1.93751e-06
2.04701e-06
1.34977e-07
2.04459e-06
-2.34168e-07
2.04704e-06
2.77564e-07
2.04199e-06
-3.12485e-07
2.0488e-06
3.79199e-07
2.04223e-06
-2.70957e-07
2.04726e-06
1.93076e-07
2.0447e-06
-5.46327e-08
2.04542e-06
1.35418e-09
2.04514e-06
1.24531e-08
2.0467e-06
2.62152e-08
2.04564e-06
-2.05187e-08
2.04879e-06
5.63851e-08
2.04567e-06
-2.29965e-08
2.05113e-06
6.31519e-08
2.04364e-06
-9.50495e-09
2.04958e-06
7.04685e-08
2.03817e-06
3.81284e-08
2.03986e-06
9.76601e-08
1.411e-07
2.0326e-06
2.14493e-06
1.34045e-07
2.14239e-06
-2.31624e-07
2.14514e-06
2.74815e-07
2.13962e-06
-3.06966e-07
2.14704e-06
3.71773e-07
2.13978e-06
-2.63694e-07
2.14553e-06
1.87328e-07
2.14223e-06
-5.13294e-08
2.14365e-06
-7.23051e-11
2.1427e-06
1.34093e-08
2.14493e-06
2.39764e-08
2.14325e-06
-1.88336e-08
2.14715e-06
5.24866e-08
2.14341e-06
-1.92573e-08
2.14934e-06
5.7218e-08
2.14175e-06
-1.91265e-09
2.14703e-06
6.51845e-08
2.13672e-06
4.84391e-08
2.13694e-06
9.74485e-08
1.46087e-07
2.13195e-06
2.2475e-06
1.33038e-07
2.24481e-06
-2.28942e-07
2.24787e-06
2.7176e-07
2.24185e-06
-3.00945e-07
2.24993e-06
3.63695e-07
2.24191e-06
-2.55682e-07
2.24846e-06
1.80784e-07
2.24434e-06
-4.7213e-08
2.24656e-06
-2.29028e-09
2.24486e-06
1.51048e-08
2.24784e-06
2.09964e-08
2.24553e-06
-1.65226e-08
2.25011e-06
4.79084e-08
2.24593e-06
-1.50736e-08
2.25203e-06
5.1113e-08
2.24473e-06
5.3899e-09
2.24898e-06
6.09349e-08
2.24002e-06
5.7398e-08
2.23884e-06
9.86297e-08
1.49204e-07
2.23572e-06
2.35495e-06
1.31959e-07
2.35211e-06
-2.26102e-07
2.35549e-06
2.68388e-07
2.34893e-06
-2.94386e-07
2.35769e-06
3.54929e-07
2.34888e-06
-2.46865e-07
2.35629e-06
1.73374e-07
2.35129e-06
-4.2213e-08
2.35437e-06
-5.37275e-09
2.3519e-06
1.75785e-08
2.35563e-06
1.72672e-08
2.35276e-06
-1.36533e-08
2.35786e-06
4.28061e-08
2.35351e-06
-1.07244e-08
2.35942e-06
4.52003e-08
2.35275e-06
1.20609e-08
2.35572e-06
5.79619e-08
2.34819e-06
6.49296e-08
2.34586e-06
1.0096e-07
1.5093e-07
2.34414e-06
2.46755e-06
1.30804e-07
2.46454e-06
-2.23088e-07
2.46824e-06
2.64683e-07
2.4611e-06
-2.87248e-07
2.4706e-06
3.45431e-07
2.46092e-06
-2.37184e-07
2.46926e-06
1.65034e-07
2.46332e-06
-3.62697e-08
2.46731e-06
-9.36656e-09
2.46406e-06
2.08281e-08
2.46849e-06
1.28435e-08
2.46521e-06
-1.03765e-08
2.47059e-06
3.74234e-08
2.46642e-06
-6.55733e-09
2.47177e-06
3.9851e-08
2.466e-06
1.78376e-08
2.46762e-06
5.63364e-08
2.4614e-06
7.11547e-08
2.45829e-06
1.04071e-07
1.51746e-07
2.45747e-06
2.58553e-06
1.29566e-07
2.58233e-06
-2.19887e-07
2.58639e-06
2.60624e-07
2.57863e-06
-2.79485e-07
2.58891e-06
3.3515e-07
2.5783e-06
-2.26575e-07
2.58763e-06
1.55707e-07
2.5807e-06
-2.93409e-08
2.58561e-06
-1.42818e-08
2.58165e-06
2.47941e-08
2.58663e-06
7.86037e-09
2.58319e-06
-6.93713e-09
2.58853e-06
3.20834e-08
2.58492e-06
-2.94788e-09
2.58939e-06
3.53844e-08
2.58464e-06
2.25853e-08
2.58503e-06
5.59421e-08
2.57985e-06
7.63434e-08
2.57636e-06
1.07556e-07
1.52078e-07
2.57603e-06
2.70915e-06
1.28241e-07
2.70575e-06
-2.16483e-07
2.71019e-06
2.56179e-07
2.70175e-06
-2.71043e-07
2.71287e-06
3.24028e-07
2.70127e-06
-2.14974e-07
2.71163e-06
1.45345e-07
2.70371e-06
-2.14128e-08
2.7095e-06
-2.00764e-08
2.70495e-06
2.93422e-08
2.71027e-06
2.54612e-09
2.707e-06
-3.67178e-09
2.71193e-06
2.71559e-08
2.7092e-06
-2.2134e-10
2.7126e-06
3.1983e-08
2.70885e-06
2.6341e-08
2.70828e-06
5.65155e-08
2.70381e-06
8.08079e-08
2.70029e-06
1.11077e-07
1.5223e-07
2.70014e-06
2.83869e-06
1.26819e-07
2.83505e-06
-2.12847e-07
2.83993e-06
2.51303e-07
2.83074e-06
-2.61857e-07
2.84277e-06
3.12e-07
2.83012e-06
-2.02323e-07
2.84154e-06
1.33924e-07
2.83264e-06
-1.25148e-08
2.83921e-06
-2.66402e-08
2.8343e-06
3.42523e-08
2.83962e-06
-2.77885e-09
2.83694e-06
-9.85207e-10
2.84108e-06
2.30119e-08
2.83945e-06
1.41273e-09
2.84179e-06
2.9644e-08
2.8388e-06
2.93244e-08
2.8376e-06
5.77173e-08
2.83361e-06
8.47963e-08
2.83026e-06
1.14434e-07
1.52361e-07
2.83012e-06
2.97442e-06
1.2529e-07
2.97052e-06
-2.08938e-07
2.97589e-06
2.45927e-07
2.96588e-06
-2.51848e-07
2.97889e-06
2.98999e-07
2.96514e-06
-1.88579e-07
2.97761e-06
1.21453e-07
2.96784e-06
-2.73842e-09
2.97497e-06
-3.37728e-08
2.97002e-06
3.92001e-08
2.97495e-06
-7.71065e-09
2.97326e-06
7.07764e-10
2.97632e-06
1.9949e-08
2.97582e-06
1.91831e-09
2.97728e-06
2.81755e-08
2.97472e-06
3.18873e-08
2.97322e-06
5.92223e-08
2.96957e-06
8.84398e-08
2.96645e-06
1.17562e-07
1.52522e-07
2.96628e-06
3.11666e-06
1.23641e-07
3.11241e-06
-2.04696e-07
3.11838e-06
2.39962e-07
3.10746e-06
-2.40932e-07
3.1215e-06
2.8496e-07
3.10665e-06
-1.73726e-07
3.1201e-06
1.07997e-07
3.10962e-06
7.74574e-09
3.11703e-06
-4.11791e-08
3.11245e-06
4.37762e-08
3.11654e-06
-1.18035e-08
3.11621e-06
1.04228e-09
3.11802e-06
1.81417e-08
3.11849e-06
1.44384e-09
3.1194e-06
2.72653e-08
3.11687e-06
3.44159e-08
3.1153e-06
6.0793e-08
3.11198e-06
9.17591e-08
3.10908e-06
1.20466e-07
1.52722e-07
3.10888e-06
3.2657e-06
1.21855e-07
3.26104e-06
-2.00037e-07
3.2677e-06
2.33295e-07
3.25579e-06
-2.2902e-07
3.27091e-06
2.6984e-07
3.25498e-06
-1.57794e-07
3.26929e-06
9.36923e-08
3.25836e-06
1.86709e-08
3.26565e-06
-4.84649e-08
3.26191e-06
4.75108e-08
3.26474e-06
-1.46282e-08
3.26599e-06
-2.08663e-10
3.26657e-06
1.75547e-08
3.26765e-06
3.64358e-10
3.26838e-06
2.65392e-08
3.26556e-06
3.72307e-08
3.264e-06
6.23542e-08
3.26107e-06
9.46895e-08
3.25839e-06
1.23154e-07
1.52978e-07
3.25813e-06
3.42187e-06
1.19916e-07
3.41669e-06
-1.94858e-07
3.42419e-06
2.25794e-07
3.41121e-06
-2.16036e-07
3.42742e-06
2.5363e-07
3.41051e-06
-1.40884e-07
3.42543e-06
7.87688e-08
3.41443e-06
2.96719e-08
3.42113e-06
-5.51625e-08
3.41871e-06
4.99334e-08
3.41993e-06
-1.58509e-08
3.42277e-06
-3.05096e-09
3.4224e-06
1.79207e-08
3.42354e-06
-7.69562e-10
3.42438e-06
2.56935e-08
3.42115e-06
4.04602e-08
3.41949e-06
6.40217e-08
3.41705e-06
9.71309e-08
3.41461e-06
1.25587e-07
1.53319e-07
3.41427e-06
3.58552e-06
1.17803e-07
3.5797e-06
-1.89036e-07
3.58817e-06
2.17322e-07
3.57408e-06
-2.01939e-07
3.59132e-06
2.36387e-07
3.57362e-06
-1.23186e-07
3.58883e-06
6.3563e-08
3.57821e-06
4.02921e-08
3.58382e-06
-6.07765e-08
3.58311e-06
5.06492e-08
3.58256e-06
-1.5308e-08
3.58673e-06
-7.21975e-09
3.58588e-06
1.87761e-08
3.58643e-06
-1.32806e-09
3.58754e-06
2.45924e-08
3.58397e-06
4.40259e-08
3.58197e-06
6.60171e-08
3.58007e-06
9.90326e-08
3.578e-06
1.27664e-07
1.53747e-07
3.57757e-06
3.75701e-06
1.155e-07
3.75042e-06
-1.82443e-07
3.75998e-06
2.07757e-07
3.74479e-06
-1.86746e-07
3.76292e-06
2.18255e-07
3.74473e-06
-1.05002e-07
3.75979e-06
4.85042e-08
3.75005e-06
5.00318e-08
3.75412e-06
-6.48406e-08
3.75535e-06
4.94133e-08
3.75311e-06
-1.3069e-08
3.75809e-06
-1.21922e-08
3.75728e-06
1.95874e-08
3.75669e-06
-7.4547e-10
3.75799e-06
2.33004e-08
3.75429e-06
4.77192e-08
3.75177e-06
6.85358e-08
3.75036e-06
1.00446e-07
3.74879e-06
1.29229e-07
1.54197e-07
3.74834e-06
3.9367e-06
1.12991e-07
3.92922e-06
-1.74964e-07
3.93994e-06
1.9703e-07
3.92376e-06
-1.70563e-07
3.94253e-06
1.99486e-07
3.92427e-06
-8.67401e-08
3.93868e-06
3.40903e-08
3.93032e-06
5.83916e-08
3.93247e-06
-6.69888e-08
3.93568e-06
4.62004e-08
3.93203e-06
-9.41521e-09
3.93715e-06
-1.73114e-08
3.93678e-06
1.99571e-08
3.93475e-06
1.28202e-09
3.93594e-06
2.21144e-08
3.9324e-06
5.12614e-08
3.92926e-06
7.16672e-08
3.92821e-06
1.01503e-07
3.92728e-06
1.30155e-07
1.54511e-07
3.92697e-06
4.12497e-06
1.10267e-07
4.11653e-06
-1.6652e-07
4.1284e-06
1.8516e-07
4.11144e-06
-1.53607e-07
4.13049e-06
1.80439e-07
4.11265e-06
-6.88993e-08
4.12589e-06
2.08461e-08
4.11934e-06
6.49481e-08
4.11939e-06
-6.70422e-08
4.12435e-06
4.12387e-08
4.11973e-06
-4.79266e-09
4.12429e-06
-2.18705e-08
4.12454e-06
1.97109e-08
4.12109e-06
4.73192e-09
4.12172e-06
2.14801e-08
4.11859e-06
5.43949e-08
4.11491e-06
7.53453e-08
4.11403e-06
1.02377e-07
4.11378e-06
1.30407e-07
1.54451e-07
4.11384e-06
4.32224e-06
1.07326e-07
4.31282e-06
-1.57096e-07
4.32568e-06
1.72297e-07
4.30829e-06
-1.36218e-07
4.32717e-06
1.61559e-07
4.31029e-06
-5.20132e-08
4.3219e-06
9.23841e-09
4.31738e-06
6.94591e-08
4.3154e-06
-6.50617e-08
4.32168e-06
3.49659e-08
4.31656e-06
3.25274e-10
4.31995e-06
-2.52635e-08
4.32075e-06
1.89127e-08
4.31612e-06
9.35863e-09
4.31581e-06
2.17907e-08
4.31321e-06
5.69977e-08
4.30923e-06
7.9326e-08
4.30835e-06
1.03255e-07
4.3087e-06
1.30055e-07
1.53784e-07
4.30937e-06
4.52893e-06
1.04175e-07
4.51858e-06
-1.46747e-07
4.53215e-06
1.58727e-07
4.51478e-06
-1.18847e-07
4.53301e-06
1.43328e-07
4.51755e-06
-3.65528e-08
4.52723e-06
-4.42243e-10
4.52478e-06
7.19099e-08
4.52101e-06
-6.12941e-08
4.52804e-06
2.79321e-08
4.52283e-06
5.53683e-09
4.52461e-06
-2.70388e-08
4.52573e-06
1.77879e-08
4.52029e-06
1.47999e-08
4.51879e-06
2.32935e-08
4.5167e-06
5.90857e-08
4.51277e-06
8.32588e-08
4.51174e-06
1.04284e-07
4.51257e-06
1.29221e-07
1.52363e-07
4.51399e-06
4.74546e-06
1.00831e-07
4.73432e-06
-1.3561e-07
4.74818e-06
1.44873e-07
4.73135e-06
-1.02016e-07
4.74848e-06
1.26191e-07
4.73476e-06
-2.28273e-08
4.74246e-06
-8.14172e-09
4.74187e-06
7.24916e-08
4.73665e-06
-5.60654e-08
4.7439e-06
2.06764e-08
4.73884e-06
1.06004e-08
4.73877e-06
-2.69661e-08
4.73993e-06
1.66235e-08
4.73397e-06
2.07551e-08
4.73127e-06
2.59941e-08
4.72958e-06
6.07797e-08
4.72603e-06
8.68139e-08
4.7248e-06
1.05505e-07
4.72596e-06
1.28062e-07
1.50159e-07
4.72817e-06
4.97231e-06
9.73198e-08
4.9606e-06
-1.23902e-07
4.97422e-06
1.31249e-07
4.95846e-06
-8.62506e-08
4.97419e-06
1.10462e-07
4.96226e-06
-1.09043e-08
4.96815e-06
-1.40303e-08
4.9691e-06
7.15433e-08
4.96275e-06
-4.97154e-08
4.96972e-06
1.37123e-08
4.96497e-06
1.53442e-08
4.96296e-06
-2.49529e-08
4.96389e-06
1.56954e-08
4.95766e-06
2.69821e-08
4.9539e-06
2.97559e-08
4.95244e-06
6.22331e-08
4.94952e-06
8.97397e-08
4.94818e-06
1.06847e-07
4.94951e-06
1.26729e-07
1.47252e-07
4.95242e-06
5.20996e-06
9.36734e-08
5.19797e-06
-1.11908e-07
5.21082e-06
1.18393e-07
5.19653e-06
-7.19518e-08
5.21076e-06
9.62322e-08
5.20046e-06
-6.07147e-10
5.20482e-06
-1.83928e-08
5.20699e-06
6.93721e-08
5.1997e-06
-4.24203e-08
5.20599e-06
7.42041e-09
5.20165e-06
1.96857e-08
5.19771e-06
-2.10154e-08
5.19815e-06
1.52514e-08
5.19196e-06
3.31788e-08
5.18724e-06
3.44692e-08
5.1859e-06
6.35776e-08
5.18377e-06
9.18664e-08
5.18244e-06
1.08185e-07
5.18383e-06
1.25338e-07
1.4378e-07
5.1873e-06
5.45894e-06
8.99216e-08
5.44699e-06
-9.99578e-08
5.45862e-06
1.06763e-07
5.44592e-06
-5.92513e-08
5.45882e-06
8.33287e-08
5.44983e-06
8.39179e-09
5.45289e-06
-2.14603e-08
5.45613e-06
6.61369e-08
5.44794e-06
-3.42307e-08
5.45318e-06
2.18065e-09
5.44932e-06
2.35422e-08
5.44356e-06
-1.5252e-08
5.44333e-06
1.54792e-08
5.4375e-06
3.90067e-08
5.43194e-06
4.00335e-08
5.43058e-06
6.49335e-08
5.42931e-06
9.31417e-08
5.42815e-06
1.0934e-07
5.42955e-06
1.23939e-07
1.39928e-07
5.4334e-06
5.71979e-06
8.60862e-08
5.70823e-06
-8.83988e-08
5.71834e-06
9.666e-08
5.70702e-06
-4.79374e-08
5.71894e-06
7.14072e-08
5.711e-06
1.63321e-08
5.71279e-06
-2.32507e-08
5.71702e-06
6.19081e-08
5.70807e-06
-2.52795e-08
5.71181e-06
-1.55864e-09
5.70844e-06
2.69124e-08
5.7012e-06
-8.01254e-09
5.70006e-06
1.66242e-08
5.69482e-06
4.42444e-08
5.68869e-06
4.61671e-08
5.68715e-06
6.64731e-08
5.68663e-06
9.36564e-08
5.68589e-06
1.10085e-07
5.68733e-06
1.22497e-07
1.35872e-07
5.69138e-06
5.99311e-06
8.21733e-08
5.98224e-06
-7.75379e-08
5.99076e-06
8.81469e-08
5.98028e-06
-3.74572e-08
5.9916e-06
6.00886e-08
5.98472e-06
2.32061e-08
5.985e-06
-2.35295e-08
5.99011e-06
5.6795e-08
5.98077e-06
-1.59366e-08
5.98252e-06
-3.31154e-09
5.97961e-06
2.98271e-08
5.97125e-06
3.42349e-10
5.96901e-06
1.88638e-08
5.96449e-06
4.8771e-08
5.95814e-06
5.25166e-08
5.95626e-06
6.83508e-08
5.95634e-06
9.35757e-08
5.95618e-06
1.10244e-07
5.95777e-06
1.2091e-07
1.31734e-07
5.96191e-06
6.27949e-06
7.8168e-08
6.26946e-06
-6.75081e-08
6.27666e-06
8.09523e-08
6.26628e-06
-2.70807e-08
6.2772e-06
4.91698e-08
6.2717e-06
2.87042e-08
6.27015e-06
-2.1975e-08
6.27576e-06
5.11813e-08
6.2666e-06
-6.77132e-09
6.26607e-06
-2.78517e-09
6.26332e-06
3.25775e-08
6.25434e-06
9.3207e-09
6.251e-06
2.22025e-08
6.24711e-06
5.26659e-08
6.2409e-06
5.87268e-08
6.23862e-06
7.06248e-08
6.2391e-06
9.31022e-08
6.23961e-06
1.09733e-07
6.24145e-06
1.19065e-07
1.2755e-07
6.24564e-06
6.5796e-06
7.40351e-08
6.5703e-06
-5.82063e-08
6.5768e-06
7.44495e-08
6.5658e-06
-1.6075e-08
6.57622e-06
3.87512e-08
6.57256e-06
3.23568e-08
6.56901e-06
-1.84252e-08
6.57456e-06
4.56355e-08
6.56603e-06
1.75378e-09
6.56318e-06
7.28988e-11
6.56037e-06
3.53879e-08
6.55106e-06
1.86224e-08
6.54673e-06
2.65321e-08
6.54331e-06
5.60936e-08
6.53758e-06
6.44552e-08
6.53493e-06
7.32743e-08
6.53561e-06
9.24212e-08
6.53678e-06
1.08561e-07
6.53896e-06
1.16885e-07
1.23299e-07
6.54321e-06
6.8941e-06
6.97281e-08
6.88524e-06
-4.93487e-08
6.89183e-06
6.78582e-08
6.87983e-06
-4.07296e-09
6.88906e-06
2.952e-08
6.88781e-06
3.36087e-08
6.88248e-06
-1.30987e-08
6.88724e-06
4.08798e-08
6.87954e-06
9.45134e-09
6.87481e-06
4.80438e-09
6.87144e-06
3.87521e-08
6.86223e-06
2.78415e-08
6.85687e-06
3.1886e-08
6.85382e-06
5.91484e-08
6.84877e-06
6.9503e-08
6.84589e-06
7.61492e-08
6.84661e-06
9.17084e-08
6.84836e-06
1.06807e-07
6.85092e-06
1.14323e-07
1.18937e-07
6.85528e-06
7.22366e-06
6.52005e-08
7.2149e-06
-4.05812e-08
7.22223e-06
6.05242e-08
7.20946e-06
8.69776e-09
7.21632e-06
2.26606e-08
7.21774e-06
3.21861e-08
7.2114e-06
-6.75395e-09
7.2145e-06
3.77734e-08
7.20765e-06
1.62997e-08
7.20167e-06
1.07852e-08
7.19761e-06
4.28117e-08
7.1884e-06
3.70576e-08
7.18226e-06
3.80272e-08
7.17939e-06
6.20164e-08
7.17509e-06
7.38055e-08
7.17224e-06
7.89927e-08
7.17283e-06
9.11174e-08
7.17506e-06
1.04583e-07
7.17801e-06
1.11372e-07
1.14434e-07
7.18251e-06
7.56899e-06
6.04326e-08
7.56007e-06
-3.1654e-08
7.56837e-06
5.22187e-08
7.55567e-06
2.14033e-08
7.5589e-06
1.94291e-08
7.56276e-06
2.83196e-08
7.55643e-06
-4.19198e-10
7.55735e-06
3.68572e-08
7.55088e-06
2.27701e-08
7.54446e-06
1.72054e-08
7.53962e-06
4.76483e-08
7.53047e-06
4.62052e-08
7.52375e-06
4.47504e-08
7.52078e-06
6.49826e-08
7.51727e-06
7.73197e-08
7.51465e-06
8.16069e-08
7.51509e-06
9.06761e-08
7.51765e-06
1.02025e-07
7.52101e-06
1.08011e-07
1.0977e-07
7.52568e-06
7.93079e-06
5.5449e-08
7.92161e-06
-2.24703e-08
7.9306e-06
4.32283e-08
7.91919e-06
3.28173e-08
7.91823e-06
2.03834e-08
7.92324e-06
2.33173e-08
7.91805e-06
4.76764e-09
7.91685e-06
3.80527e-08
7.9103e-06
2.93215e-08
7.90354e-06
2.39654e-08
7.89834e-06
5.28512e-08
7.88937e-06
5.51771e-08
7.88209e-06
5.20264e-08
7.87889e-06
6.81807e-08
7.87606e-06
8.01481e-08
7.87381e-06
8.38621e-08
7.87422e-06
9.02643e-08
7.87698e-06
9.92709e-08
7.88073e-06
1.04258e-07
1.04907e-07
7.88559e-06
8.3098e-06
5.03268e-08
8.30046e-06
-1.31227e-08
8.30941e-06
3.42721e-08
8.30071e-06
4.152e-08
8.29558e-06
2.55163e-08
8.29989e-06
1.9003e-08
8.29661e-06
8.04519e-09
8.29396e-06
4.07068e-08
8.28698e-06
3.63034e-08
8.27967e-06
3.12762e-08
8.27452e-06
5.79952e-08
8.26589e-06
6.38064e-08
8.25815e-06
5.97721e-08
8.25468e-06
7.16436e-08
8.25229e-06
8.25441e-08
8.25048e-06
8.56659e-08
8.25101e-06
8.97357e-08
8.2539e-06
9.63831e-08
8.25798e-06
1.00175e-07
9.98445e-08
8.26305e-06
8.70679e-06
4.51986e-08
8.69759e-06
-3.92071e-09
8.70558e-06
2.6283e-08
8.70072e-06
4.6376e-08
8.69205e-06
3.419e-08
8.69369e-06
1.73626e-08
8.69254e-06
9.19432e-09
8.68968e-06
4.35665e-08
8.68162e-06
4.43603e-08
8.67383e-06
3.9069e-08
8.66879e-06
6.30311e-08
8.66075e-06
7.18511e-08
8.65283e-06
6.76955e-08
8.64906e-06
7.54063e-08
8.64686e-06
8.47462e-08
8.64554e-06
8.69899e-08
8.64625e-06
8.90178e-08
8.6493e-06
9.33424e-08
8.65364e-06
9.58269e-08
9.46024e-08
8.65889e-06
9.1226e-06
4.02204e-08
9.11397e-06
4.71149e-09
9.12021e-06
2.00421e-08
9.11924e-06
4.7347e-08
9.10888e-06
4.45496e-08
9.10634e-06
1.98963e-08
9.10647e-06
9.06476e-09
9.10427e-06
4.57649e-08
9.09571e-06
5.29234e-08
9.08707e-06
4.77102e-08
9.08193e-06
6.81699e-08
9.07472e-06
7.9059e-08
9.06696e-06
7.54551e-08
9.06292e-06
7.94499e-08
9.06088e-06
8.67852e-08
9.05985e-06
8.80191e-08
9.06078e-06
8.80862e-08
9.06398e-06
9.01467e-08
9.0685e-06
9.13039e-08
8.91863e-08
9.07392e-06
9.55813e-06
3.55539e-08
9.55052e-06
1.23183e-08
9.55438e-06
1.61775e-08
9.55669e-06
4.50381e-08
9.54675e-06
5.44926e-08
9.53964e-06
2.70084e-08
9.5392e-06
9.50351e-09
9.53846e-06
4.65054e-08
9.53015e-06
6.12358e-08
9.52059e-06
5.72693e-08
9.51501e-06
7.37467e-08
9.50871e-06
8.53639e-08
9.50138e-06
8.27831e-08
9.49712e-06
8.37045e-08
9.49536e-06
8.85456e-08
9.49448e-06
8.88983e-08
9.49554e-06
8.7028e-08
9.49886e-06
8.683e-08
9.50362e-06
8.65408e-08
8.36567e-08
9.50915e-06
1.00143e-05
3.13457e-08
1.00081e-05
1.85592e-08
1.00094e-05
1.48655e-08
1.00138e-05
4.06605e-08
1.00061e-05
6.22321e-08
9.99511e-06
3.79542e-08
9.99207e-06
1.25448e-08
9.99288e-06
4.56937e-08
9.98569e-06
6.84226e-08
9.97555e-06
6.74125e-08
9.9693e-06
7.99887e-08
9.96365e-06
9.10198e-08
9.95688e-06
8.95492e-08
9.95269e-06
8.78991e-08
9.9511e-06
9.01369e-08
9.95061e-06
8.93869e-08
9.95163e-06
8.60049e-08
9.95498e-06
8.34843e-08
9.95993e-06
8.1585e-08
7.7945e-08
9.96564e-06
1.04923e-05
2.77107e-08
1.04876e-05
2.31951e-08
1.04865e-05
1.59865e-08
1.04916e-05
3.55299e-08
1.0487e-05
6.68859e-08
1.0474e-05
5.0904e-08
1.0467e-05
1.95528e-08
1.04683e-05
4.44784e-08
1.04631e-05
7.35415e-08
1.04532e-05
7.73138e-08
1.04461e-05
8.70916e-08
1.04406e-05
9.65168e-08
1.04346e-05
9.55568e-08
1.04305e-05
9.20246e-08
1.04291e-05
9.15537e-08
1.04291e-05
8.93671e-08
1.04303e-05
8.48215e-08
1.04335e-05
8.02285e-08
1.04386e-05
7.65572e-08
7.20403e-08
1.04445e-05
1.0993e-05
2.47178e-08
1.09901e-05
2.61004e-08
1.09869e-05
1.92078e-08
1.09915e-05
3.08864e-08
1.09901e-05
6.82689e-08
1.09771e-05
6.39706e-08
1.09661e-05
3.05704e-08
1.09658e-05
4.47123e-08
1.09633e-05
7.60926e-08
1.09546e-05
8.60079e-08
1.09468e-05
9.49059e-08
1.0941e-05
1.02251e-07
1.09356e-05
1.00946e-07
1.09317e-05
9.59891e-08
1.09304e-05
9.28162e-08
1.09308e-05
8.89707e-08
1.09324e-05
8.31967e-08
1.09357e-05
7.69843e-08
1.09407e-05
7.153e-08
6.60455e-08
1.09467e-05
1.15177e-05
2.23848e-08
1.15163e-05
2.75075e-08
1.15119e-05
2.35969e-08
1.15148e-05
2.80258e-08
1.15161e-05
6.68921e-08
1.15048e-05
7.52598e-08
1.14906e-05
4.48426e-08
1.14876e-05
4.7707e-08
1.14869e-05
7.68062e-08
1.14802e-05
9.26591e-08
1.14725e-05
1.02622e-07
1.14663e-05
1.08422e-07
1.14612e-05
1.06104e-07
1.14575e-05
9.96418e-08
1.14563e-05
9.40624e-08
1.14569e-05
8.82926e-08
1.14589e-05
8.12212e-08
1.14623e-05
7.36298e-08
1.14671e-05
6.66653e-08
6.00443e-08
1.14731e-05
1.20675e-05
2.06728e-08
1.20673e-05
2.77025e-08
1.20625e-05
2.84119e-08
1.20629e-05
2.76285e-08
1.20662e-05
6.36079e-08
1.20578e-05
8.37001e-08
1.20419e-05
6.07271e-08
1.20355e-05
5.41276e-08
1.20351e-05
7.7142e-08
1.2031e-05
9.67928e-08
1.20244e-05
1.09246e-07
1.20179e-05
1.14843e-07
1.20127e-05
1.1132e-07
1.20093e-05
1.03107e-07
1.2008e-05
9.52907e-08
1.20088e-05
8.75162e-08
1.2011e-05
7.90654e-08
1.20144e-05
7.01977e-08
1.20191e-05
6.19285e-08
5.40663e-08
1.20251e-05
1.26438e-05
1.94865e-08
1.26444e-05
2.71278e-08
1.26398e-05
3.29584e-08
1.26377e-05
2.97523e-08
1.26415e-05
5.98048e-08
1.26365e-05
8.87358e-08
1.2621e-05
7.61914e-08
1.26111e-05
6.4016e-08
1.26097e-05
7.85209e-08
1.26079e-05
9.86568e-08
1.26031e-05
1.13962e-07
1.25973e-05
1.20653e-07
1.25919e-05
1.16781e-07
1.25884e-05
1.06597e-07
1.25872e-05
9.65108e-08
1.25879e-05
8.67625e-08
1.25901e-05
7.6859e-08
1.25936e-05
6.67281e-08
1.25983e-05
5.71715e-08
4.8191e-08
1.26042e-05
1.32477e-05
1.87113e-08
1.32486e-05
2.61943e-08
1.32448e-05
3.6843e-08
1.32406e-05
3.38893e-08
1.32436e-05
5.68097e-08
1.32418e-05
9.05291e-08
1.32283e-05
8.97148e-08
1.32163e-05
7.60532e-08
1.32126e-05
8.21945e-08
1.32121e-05
9.9109e-08
1.32098e-05
1.16314e-07
1.32054e-05
1.25018e-07
1.32002e-05
1.21979e-07
1.31964e-05
1.10374e-07
1.31952e-05
9.78047e-08
1.31959e-05
8.60137e-08
1.31981e-05
7.46244e-08
1.32017e-05
6.31728e-08
1.32064e-05
5.2441e-08
4.25612e-08
1.32121e-05
1.38807e-05
1.8197e-08
1.38815e-05
2.5374e-08
1.38786e-05
3.97493e-08
1.38731e-05
3.93649e-08
1.38744e-05
5.55383e-08
1.38751e-05
8.98356e-08
1.38647e-05
1.00076e-07
1.38518e-05
8.89405e-08
1.38458e-05
8.82099e-08
1.38454e-05
9.95698e-08
1.38453e-05
1.1633e-07
1.38431e-05
1.27228e-07
1.3839e-05
1.26097e-07
1.38352e-05
1.14198e-07
1.38337e-05
9.93094e-08
1.38345e-05
8.52423e-08
1.38367e-05
7.2415e-08
1.38402e-05
5.9625e-08
1.38449e-05
4.77351e-08
3.73406e-08
1.38501e-05
1.45441e-05
1.77792e-08
1.45444e-05
2.50451e-08
1.45426e-05
4.15869e-08
1.45365e-05
4.5449e-08
1.45357e-05
5.63592e-08
1.45378e-05
8.77169e-08
1.4531e-05
1.06858e-07
1.45187e-05
1.01221e-07
1.4511e-05
9.59245e-08
1.45096e-05
1.00967e-07
1.45111e-05
1.14849e-07
1.45114e-05
1.26901e-07
1.45091e-05
1.28402e-07
1.4506e-05
1.17316e-07
1.45043e-05
1.00961e-07
1.45052e-05
8.43625e-08
1.45075e-05
7.01445e-08
1.45105e-05
5.65758e-08
1.45144e-05
4.38653e-08
3.24109e-08
1.45193e-05
1.52393e-05
1.73213e-08
1.5239e-05
2.5412e-08
1.5238e-05
4.25578e-08
1.52321e-05
5.13681e-08
1.52293e-05
5.91706e-08
1.52316e-05
8.54364e-08
1.52283e-05
1.10097e-07
1.52179e-05
1.11638e-07
1.52094e-05
1.04439e-07
1.52068e-05
1.03521e-07
1.52087e-05
1.12946e-07
1.52114e-05
1.24268e-07
1.52115e-05
1.28248e-07
1.52098e-05
1.19066e-07
1.52084e-05
1.02326e-07
1.52092e-05
8.35668e-08
1.52118e-05
6.75918e-08
1.52148e-05
5.34775e-08
1.52181e-05
4.06596e-08
2.87187e-08
1.52217e-05
1.59679e-05
1.67424e-08
1.59667e-05
2.66224e-08
1.59665e-05
4.27996e-08
1.59612e-05
5.65935e-08
1.59568e-05
6.36003e-08
1.59585e-05
8.37831e-08
1.5958e-05
1.10546e-07
1.59505e-05
1.19146e-07
1.59421e-05
1.12857e-07
1.59386e-05
1.07012e-07
1.59403e-05
1.11259e-07
1.59444e-05
1.20152e-07
1.59471e-05
1.25515e-07
1.59474e-05
1.18812e-07
1.59468e-05
1.02943e-07
1.59473e-05
8.30181e-08
1.59497e-05
6.51549e-08
1.5953e-05
5.02505e-08
1.5956e-05
3.76343e-08
2.61063e-08
1.59586e-05
1.67313e-05
1.60173e-08
1.67294e-05
2.85963e-08
1.67294e-05
4.27117e-08
1.67254e-05
6.06525e-08
1.672e-05
6.89735e-08
1.67204e-05
8.3427e-08
1.67219e-05
1.09044e-07
1.67177e-05
1.23285e-07
1.67104e-05
1.20217e-07
1.67063e-05
1.11059e-07
1.67075e-05
1.10042e-07
1.67123e-05
1.15346e-07
1.67172e-05
1.20669e-07
1.67197e-05
1.1634e-07
1.67202e-05
1.02364e-07
1.67207e-05
8.25723e-08
1.67224e-05
6.34197e-08
1.67253e-05
4.74017e-08
1.67281e-05
3.48002e-08
2.39635e-08
1.67302e-05
1.75312e-05
1.52054e-08
1.75288e-05
3.09289e-08
1.75286e-05
4.2964e-08
1.7526e-05
6.32e-08
1.75205e-05
7.45501e-08
1.75193e-05
8.45764e-08
1.75218e-05
1.06539e-07
1.75209e-05
1.24176e-07
1.75155e-05
1.25629e-07
1.75115e-05
1.15075e-07
1.75121e-05
1.094e-07
1.75171e-05
1.10415e-07
1.75233e-05
1.14467e-07
1.75277e-05
1.11921e-07
1.75297e-05
1.00338e-07
1.75304e-05
8.18765e-08
1.75314e-05
6.2403e-08
1.75334e-05
4.54654e-08
1.75358e-05
3.23703e-08
2.20173e-08
1.75377e-05
1.83691e-05
1.4416e-08
1.83668e-05
3.32656e-08
1.83658e-05
4.39201e-08
1.83647e-05
6.42989e-08
1.83597e-05
7.95539e-08
1.83574e-05
8.69578e-08
1.836e-05
1.03895e-07
1.83618e-05
1.22388e-07
1.83589e-05
1.28513e-07
1.83555e-05
1.18468e-07
1.83557e-05
1.09172e-07
1.83604e-05
1.05807e-07
1.83672e-05
1.07586e-07
1.8373e-05
1.06121e-07
1.83764e-05
9.69231e-08
1.83777e-05
8.05957e-08
1.83784e-05
6.17261e-08
1.83796e-05
4.42899e-08
1.83813e-05
3.06474e-08
2.028e-08
1.8383e-05
1.9247e-05
1.37703e-08
1.92451e-05
3.52246e-08
1.92433e-05
4.56949e-08
1.92432e-05
6.44399e-08
1.92396e-05
8.31431e-08
1.92364e-05
9.01191e-08
1.92384e-05
1.01864e-07
1.92422e-05
1.18612e-07
1.92422e-05
1.28491e-07
1.92399e-05
1.2085e-07
1.924e-05
1.09024e-07
1.9244e-05
1.01767e-07
1.92509e-05