/*--------------------------------*- C++ -*----------------------------------*\
| =========                 |                                                 |
| \\      /  F ield         | OpenFOAM: The Open Source CFD Toolbox           |
|  \\    /   O peration     | Version:  v2012                                 |
|   \\  /    A nd           | Website:  www.openfoam.com                      |
|    \\/     M anipulation  |                                                 |
\*---------------------------------------------------------------------------*/
FoamFile
{
    version     2.0;
    format      ascii;
    class       volVectorField;
    location    "0.55";
    object      U;
}
// * * * * * * * * * * * * * * * * * * * * * * * * * * * * * * * * * * * * * //

dimensions      [0 1 -1 0 0 0 0];


internalField   nonuniform List<vector> 
17600
(
(0.833455 0.00103207 0)
(1.15773 -0.00264816 0)
(0.852047 0.0032231 0)
(1.13719 -0.00488727 0)
(0.857728 0.00610026 0)
(1.12903 -0.00545239 0)
(0.851239 0.00366074 0)
(1.12394 -0.000777078 0)
(0.854125 -0.000385165 0)
(1.11337 0.000994272 0)
(0.862313 0.000474205 0)
(1.1066 -0.000158349 0)
(0.86544 0.00151616 0)
(1.10146 -0.000615779 0)
(0.865996 0.00240232 0)
(1.09802 -0.0015708 0)
(0.860524 0.00356759 0)
(1.09635 -0.00220331 0)
(0.846059 0.0043315 0)
(1.09425 -0.00189451 0)
(0.844679 0.00100438 0)
(1.14427 -0.00259378 0)
(0.863226 0.00318599 0)
(1.12213 -0.00472627 0)
(0.868809 0.00596716 0)
(1.11091 -0.00515826 0)
(0.864333 0.00350502 0)
(1.10263 -0.000591582 0)
(0.873626 -0.000518482 0)
(1.08931 0.00110666 0)
(0.888936 0.000319906 0)
(1.07743 4.42559e-05 0)
(0.90039 0.00138769 0)
(1.06308 -0.00042225 0)
(0.913761 0.00237278 0)
(1.04476 -0.00147666 0)
(0.928267 0.00387263 0)
(1.01956 -0.0025778 0)
(0.945436 0.0057725 0)
(0.980812 -0.00330269 0)
(0.866254 0.000997882 0)
(1.1199 -0.00254901 0)
(0.885008 0.00317749 0)
(1.0969 -0.00458153 0)
(0.890865 0.00586207 0)
(1.08331 -0.00490678 0)
(0.890323 0.00337237 0)
(1.06979 -0.000517304 0)
(0.907414 -0.000527718 0)
(1.05255 0.00104053 0)
(0.927633 0.000367212 0)
(1.03819 -2.21801e-05 0)
(0.943041 0.0015009 0)
(1.02181 -0.000554479 0)
(0.958491 0.00255874 0)
(1.00512 -0.0015925 0)
(0.970298 0.00406683 0)
(0.989755 -0.00242013 0)
(0.976426 0.00582693 0)
(0.975546 -0.00172893 0)
(0.894721 0.00103117 0)
(1.08926 -0.00254275 0)
(0.913018 0.00321157 0)
(1.06746 -0.00449019 0)
(0.918981 0.00583411 0)
(1.0542 -0.00476796 0)
(0.922007 0.00337448 0)
(1.038 -0.000608957 0)
(0.942539 -0.000406597 0)
(1.02072 0.000836235 0)
(0.960219 0.000513029 0)
(1.01039 -0.0002153 0)
(0.97143 0.00170048 0)
(1.00055 -0.000769795 0)
(0.98044 0.00277096 0)
(0.993291 -0.00172603 0)
(0.984241 0.00422466 0)
(0.988623 -0.0022921 0)
(0.983083 0.00581431 0)
(0.983122 -0.000413944 0)
(0.925052 0.00109639 0)
(1.05844 -0.00256976 0)
(0.941245 0.00327083 0)
(1.04018 -0.0044362 0)
(0.946473 0.00584219 0)
(1.0301 -0.0047017 0)
(0.950788 0.00345737 0)
(1.01579 -0.000774034 0)
(0.969035 -0.000245842 0)
(1.00283 0.000643644 0)
(0.980236 0.000622105 0)
(0.998796 -0.000354967 0)
(0.985593 0.00181092 0)
(0.995398 -0.000881979 0)
(0.989507 0.00285129 0)
(0.993447 -0.0017476 0)
(0.989965 0.00426331 0)
(0.991785 -0.00213972 0)
(0.987676 0.00581985 0)
(0.987218 0.000702045 0)
(0.952313 0.00117774 0)
(1.03289 -0.00261036 0)
(0.964732 0.00333248 0)
(1.01963 -0.00440178 0)
(0.968365 0.00584552 0)
(1.01403 -0.00466437 0)
(0.971826 0.00353613 0)
(1.00437 -0.000924097 0)
(0.984933 -0.000119611 0)
(0.99666 0.000515434 0)
(0.990662 0.00066999 0)
(0.996697 -0.000430184 0)
(0.992534 0.00184394 0)
(0.996321 -0.000926913 0)
(0.994379 0.00284813 0)
(0.995883 -0.00170226 0)
(0.994007 0.00420111 0)
(0.994689 -0.00188733 0)
(0.991586 0.0057535 0)
(0.990525 0.00174223 0)
(0.973269 0.00125641 0)
(1.01539 -0.00264473 0)
(0.981236 0.00337821 0)
(1.0071 -0.00437226 0)
(0.983017 0.00582543 0)
(1.00538 -0.00462982 0)
(0.984806 0.00357079 0)
(1.00022 -0.00102516 0)
(0.993067 -4.60165e-05 0)
(0.996077 0.000434964 0)
(0.995866 0.000683961 0)
(0.997581 -0.000478574 0)
(0.996328 0.00184724 0)
(0.998124 -0.000952624 0)
(0.997483 0.00281663 0)
(0.997976 -0.00162607 0)
(0.996813 0.0040877 0)
(0.996904 -0.00153701 0)
(0.994272 0.00559388 0)
(0.993128 0.0027532 0)
(0.98708 0.00131718 0)
(1.00558 -0.00266168 0)
(0.991152 0.00340065 0)
(1.00106 -0.00433892 0)
(0.991454 0.00578125 0)
(1.00168 -0.00458702 0)
(0.991814 0.00356267 0)
(0.999402 -0.00108092 0)
(0.996836 -7.07388e-06 0)
(0.996919 0.000377991 0)
(0.998433 0.000687367 0)
(0.998628 -0.000515576 0)
(0.998377 0.00183919 0)
(0.999368 -0.000966011 0)
(0.999257 0.00276858 0)
(0.999258 -0.00151776 0)
(0.998424 0.0039412 0)
(0.998238 -0.00111691 0)
(0.995853 0.00537685 0)
(0.994744 0.00371977 0)
(0.99485 0.00135416 0)
(1.00121 -0.0026604 0)
(0.9963 0.00340264 0)
(0.998925 -0.00429926 0)
(0.995727 0.00572059 0)
(1.00056 -0.00453304 0)
(0.995225 0.00352713 0)
(0.999627 -0.00110396 0)
(0.998498 1.67611e-05 0)
(0.997671 0.000332658 0)
(0.999623 0.000689731 0)
(0.999256 -0.000543475 0)
(0.999341 0.00182324 0)
(0.999998 -0.000964131 0)
(1.00009 0.00270251 0)
(0.999882 -0.0013727 0)
(0.999183 0.0037595 0)
(0.998878 -0.000643198 0)
(0.996683 0.00513364 0)
(0.995612 0.00460721 0)
(0.998545 0.00137042 0)
(0.999773 -0.00264615 0)
(0.998639 0.00339103 0)
(0.998553 -0.00425355 0)
(0.997674 0.00565033 0)
(1.00049 -0.00446797 0)
(0.996763 0.00347667 0)
(0.999995 -0.00110441 0)
(0.999232 3.36141e-05 0)
(0.99812 0.000297155 0)
(1.00012 0.000690747 0)
(0.999577 -0.000562424 0)
(0.999728 0.00179753 0)
(1.00028 -0.000942501 0)
(1.00042 0.00260964 0)
(1.00015 -0.0011883 0)
(0.999497 0.00354509 0)
(0.999159 -0.000135756 0)
(0.997134 0.00489011 0)
(0.9961 0.00538497 0)
(1.00001 0.00137305 0)
(0.999515 -0.0026249 0)
(0.999588 0.00337163 0)
(0.998719 -0.00420222 0)
(0.998497 0.00557327 0)
(1.00071 -0.00439256 0)
(0.997437 0.00341707 0)
(1.00027 -0.00108911 0)
(0.99958 4.44066e-05 0)
(0.998373 0.000272458 0)
(1.00033 0.000685646 0)
(0.999755 -0.000570732 0)
(0.999877 0.00175732 0)
(1.00042 -0.000897642 0)
(1.00054 0.00248399 0)
(1.00029 -0.000966336 0)
(0.99965 0.00330067 0)
(0.999315 0.000398602 0)
(0.997463 0.00468224 0)
(0.996466 0.00603423 0)
(1.00047 0.00136854 0)
(0.999571 -0.00260048 0)
(0.999945 0.00334755 0)
(0.998928 -0.00414536 0)
(0.998837 0.00548929 0)
(1.0009 -0.00430718 0)
(0.997748 0.00334894 0)
(1.00043 -0.00106125 0)
(0.999769 4.74012e-05 0)
(0.998524 0.000259044 0)
(1.00042 0.000670212 0)
(0.999874 -0.000565047 0)
(0.999947 0.00169652 0)
(1.00051 -0.00082969 0)
(1.00061 0.0023317 0)
(1.0004 -0.000719444 0)
(0.999772 0.00303857 0)
(0.99945 0.000936045 0)
(0.997778 0.00453921 0)
(0.996821 0.00654676 0)
(1.00058 0.00136088 0)
(0.999646 -0.0025745 0)
(1.00008 0.00331991 0)
(0.999062 -0.00408287 0)
(0.998984 0.00539749 0)
(1.00102 -0.00421167 0)
(0.997919 0.00327082 0)
(1.00049 -0.00102138 0)
(0.999888 4.01109e-05 0)
(0.998621 0.000257771 0)
(1.00046 0.000641185 0)
(0.999963 -0.000542825 0)
(0.999992 0.00161403 0)
(1.00059 -0.000742988 0)
(1.00067 0.00215916 0)
(1.00048 -0.00045735 0)
(0.999894 0.0027833 0)
(0.999587 0.00142841 0)
(0.998097 0.00446661 0)
(0.997186 0.00692584 0)
(1.00059 0.00135186 0)
(0.999688 -0.0025473 0)
(1.00013 0.0032889 0)
(0.999139 -0.00401449 0)
(0.999053 0.00529725 0)
(1.00106 -0.00410578 0)
(0.998034 0.00318141 0)
(1.00051 -0.000968881 0)
(0.999969 1.99072e-05 0)
(0.998686 0.000270737 0)
(1.00048 0.000596023 0)
(1.00003 -0.000505349 0)
(1.00002 0.0015134 0)
(1.00065 -0.000636132 0)
(1.00071 0.00196401 0)
(1.00055 -0.000191555 0)
(1.00001 0.00256385 0)
(0.999721 0.00186021 0)
(0.998409 0.00446769 0)
(0.99755 0.00719488 0)
(1.00059 0.00134206 0)
(0.999712 -0.00251872 0)
(1.00015 0.0032544 0)
(0.999191 -0.00393988 0)
(0.999086 0.00518815 0)
(1.00107 -0.00398906 0)
(0.998122 0.00307971 0)
(1.00049 -0.000902765 0)
(1.00003 -1.47773e-05 0)
(0.998732 0.00029909 0)
(1.00049 0.000533289 0)
(1.00008 -0.000452461 0)
(1.00004 0.00139187 0)
(1.00069 -0.000507972 0)
(1.00075 0.00175229 0)
(1.00061 8.23235e-05 0)
(1.00013 0.00240114 0)
(0.999851 0.0022333 0)
(0.998708 0.00453703 0)
(0.997905 0.00738713 0)
(1.00059 0.00133156 0)
(0.999734 -0.00248854 0)
(1.00014 0.00321628 0)
(0.999236 -0.00385867 0)
(0.9991 0.00506976 0)
(1.00106 -0.00386055 0)
(0.998196 0.0029641 0)
(1.00045 -0.000820679 0)
(1.00008 -6.71736e-05 0)
(0.998767 0.000346198 0)
(1.00049 0.000450812 0)
(1.00013 -0.000382746 0)
(1.00005 0.00125138 0)
(1.00071 -0.000372348 0)
(1.00078 0.00154584 0)
(1.00066 0.000343386 0)
(1.00023 0.00229215 0)
(0.999981 0.0025518 0)
(0.998995 0.00465377 0)
(0.998251 0.00752791 0)
(1.00058 0.00132033 0)
(0.99976 -0.00245659 0)
(1.00013 0.00317436 0)
(0.99928 -0.00377032 0)
(0.999102 0.00494143 0)
(1.00104 -0.00371929 0)
(0.998263 0.0028332 0)
(1.00041 -0.000720816 0)
(1.00012 -0.000139571 0)
(0.998794 0.000412272 0)
(1.00048 0.000351955 0)
(1.00016 -0.000300636 0)
(1.00005 0.00110032 0)
(1.00074 -0.000242856 0)
(1.00081 0.00136128 0)
(1.0007 0.000555453 0)
(1.00034 0.00222917 0)
(1.00012 0.00282227 0)
(0.999277 0.00479233 0)
(0.998593 0.00763183 0)
(1.00056 0.00130831 0)
(0.99979 -0.00242274 0)
(1.00011 0.00312836 0)
(0.999322 -0.00367424 0)
(0.999099 0.00480252 0)
(1.00102 -0.00356442 0)
(0.998326 0.00268614 0)
(1.00036 -0.000603055 0)
(1.00016 -0.000230101 0)
(0.998817 0.000493294 0)
(1.00047 0.000240167 0)
(1.0002 -0.000213261 0)
(1.00006 0.000948105 0)
(1.00076 -0.000129647 0)
(1.00085 0.00121143 0)
(1.00076 0.000723024 0)
(1.00046 0.00220733 0)
(1.00027 0.00305359 0)
(0.999561 0.00493447 0)
(0.998937 0.00770677 0)
(1.00054 0.00129547 0)
(0.999822 -0.00238694 0)
(1.00008 0.00307822 0)
(0.999364 -0.0035701 0)
(0.999095 0.00465256 0)
(1.00099 -0.00339487 0)
(0.998389 0.00252155 0)
(1.0003 -0.000465589 0)
(1.00019 -0.00034015 0)
(0.998838 0.000590097 0)
(1.00046 0.000115242 0)
(1.00023 -0.000127691 0)
(1.00007 0.000800233 0)
(1.00078 -3.53676e-05 0)
(1.00089 0.00110368 0)
(1.00082 0.000855153 0)
(1.00059 0.00222056 0)
(1.00043 0.00326386 0)
(0.999847 0.00507586 0)
(0.999283 0.00775855 0)
(1.00053 0.00128173 0)
(0.999855 -0.002349 0)
(1.00006 0.00302352 0)
(0.999405 -0.00345692 0)
(0.999091 0.00449024 0)
(1.00097 -0.00320898 0)
(0.998454 0.00233853 0)
(1.00024 -0.000309375 0)
(1.00023 -0.000464189 0)
(0.998857 0.000698233 0)
(1.00044 -1.73903e-05 0)
(1.00027 -4.35036e-05 0)
(1.00008 0.00067437 0)
(1.0008 2.93437e-05 0)
(1.00094 0.00102715 0)
(1.00088 0.000960974 0)
(1.00072 0.00225196 0)
(1.00061 0.00346209 0)
(1.00014 0.00521344 0)
(0.999635 0.00778866 0)
(1.00051 0.001267 0)
(0.999889 -0.00230846 0)
(1.00003 0.00296334 0)
(0.999445 -0.00333327 0)
(0.999089 0.00431396 0)
(1.00093 -0.00300538 0)
(0.998522 0.00213591 0)
(1.00017 -0.000134115 0)
(1.00027 -0.000603907 0)
(0.998876 0.000809778 0)
(1.00042 -0.000144916 0)
(1.0003 2.2137e-05 0)
(1.00008 0.000584133 0)
(1.00083 5.38044e-05 0)
(1.00099 0.000969839 0)
(1.00096 0.00105185 0)
(1.00088 0.00228158 0)
(1.00081 0.00364339 0)
(1.00043 0.00534682 0)
(0.99999 0.0077992 0)
(1.00048 0.00125119 0)
(0.999924 -0.00226496 0)
(1.00001 0.00289701 0)
(0.999485 -0.00319815 0)
(0.999089 0.00412273 0)
(1.0009 -0.0027833 0)
(0.998593 0.00191395 0)
(1.00011 5.58287e-05 0)
(1.00031 -0.000755963 0)
(0.998897 0.000916682 0)
(1.00041 -0.000256394 0)
(1.00034 4.8267e-05 0)
(1.00009 0.000523782 0)
(1.00086 5.04922e-05 0)
(1.00105 0.000938336 0)
(1.00105 0.00115002 0)
(1.00104 0.00231016 0)
(1.00102 0.00380299 0)
(1.00073 0.00548306 0)
(1.00035 0.00779797 0)
(1.00046 0.00123407 0)
(0.999959 -0.00221777 0)
(0.999988 0.00282294 0)
(0.999523 -0.00304999 0)
(0.999092 0.00391574 0)
(1.00086 -0.002543 0)
(0.998668 0.0016758 0)
(1.00004 0.000252667 0)
(1.00035 -0.000905603 0)
(0.998919 0.00100933 0)
(1.00038 -0.000339576 0)
(1.00038 2.69416e-05 0)
(1.0001 0.000498639 0)
(1.00089 2.72023e-05 0)
(1.00111 0.000915748 0)
(1.00114 0.00125962 0)
(1.00122 0.00234507 0)
(1.00124 0.00393606 0)
(1.00103 0.00562683 0)
(1.00071 0.00779636 0)
(1.00044 0.00121573 0)
(0.999995 -0.00216557 0)
(0.999968 0.00273883 0)
(0.999561 -0.00288708 0)
(0.999098 0.00369196 0)
(1.00082 -0.00228549 0)
(0.998747 0.00142569 0)
(0.999975 0.000450344 0)
(1.00038 -0.00104882 0)
(0.998945 0.00107515 0)
(1.00035 -0.000376659 0)
(1.00043 -3.85892e-05 0)
(1.00011 0.000505632 0)
(1.00092 -1.49745e-05 0)
(1.00119 0.000878614 0)
(1.00123 0.00137717 0)
(1.0014 0.00239197 0)
(1.00149 0.00403855 0)
(1.00133 0.00577191 0)
(1.00107 0.00780576 0)
(1.00042 0.00119562 0)
(1.00003 -0.00210661 0)
(0.999948 0.00264299 0)
(0.999596 -0.00270869 0)
(0.999108 0.00345176 0)
(1.00078 -0.00201369 0)
(0.998829 0.00116792 0)
(0.999907 0.000649487 0)
(1.00042 -0.00117437 0)
(0.998976 0.00110657 0)
(1.00032 -0.000370559 0)
(1.00048 -0.000131403 0)
(1.00011 0.00053053 0)
(1.00095 -4.90603e-05 0)
(1.00129 0.000826451 0)
(1.00134 0.00150517 0)
(1.00159 0.00245982 0)
(1.00175 0.00411438 0)
(1.00164 0.00590414 0)
(1.00142 0.00783107 0)
(1.0004 0.00117358 0)
(1.00007 -0.00203955 0)
(0.999932 0.00253379 0)
(0.99963 -0.0025149 0)
(0.999121 0.00319763 0)
(1.00073 -0.00173342 0)
(0.998914 0.000910652 0)
(0.999839 0.000840975 0)
(1.00045 -0.00126725 0)
(0.999015 0.00109373 0)
(1.00027 -0.000325533 0)
(1.00053 -0.000254876 0)
(1.00013 0.000555054 0)
(1.00098 -4.6505e-05 0)
(1.0014 0.000765962 0)
(1.00147 0.00163483 0)
(1.00179 0.00254894 0)
(1.00203 0.00416654 0)
(1.00196 0.00600527 0)
(1.00177 0.00786668 0)
(1.00037 0.00114977 0)
(1.0001 -0.00196309 0)
(0.999917 0.00241003 0)
(0.99966 -0.00230725 0)
(0.999138 0.00293215 0)
(1.00068 -0.00145014 0)
(0.999001 0.000663638 0)
(0.999774 0.00100544 0)
(1.00047 -0.00132119 0)
(0.99906 0.00103456 0)
(1.00022 -0.000248227 0)
(1.00058 -0.000390395 0)
(1.00015 0.000569023 0)
(1.001 -8.6724e-07 0)
(1.00152 0.000711 0)
(1.0016 0.00175902 0)
(1.00199 0.00266242 0)
(1.00233 0.00420428 0)
(1.0023 0.0060669 0)
(1.00212 0.00790196 0)
(1.00035 0.00112359 0)
(1.00014 -0.00187514 0)
(0.999906 0.00227159 0)
(0.999687 -0.00208828 0)
(0.99916 0.00266109 0)
(1.00063 -0.00117224 0)
(0.999089 0.000436043 0)
(0.999711 0.00113656 0)
(1.00049 -0.00133396 0)
(0.999113 0.000939764 0)
(1.00017 -0.000147135 0)
(1.00064 -0.000514699 0)
(1.00018 0.000565432 0)
(1.00102 8.81518e-05 0)
(1.00165 0.00067368 0)
(1.00176 0.00187032 0)
(1.00219 0.00280126 0)
(1.00262 0.00423903 0)
(1.00266 0.00608902 0)
(1.00248 0.00792196 0)
(1.00033 0.00109501 0)
(1.00017 -0.00177469 0)
(0.999897 0.0021198 0)
(0.999711 -0.00186187 0)
(0.999185 0.00239163 0)
(1.00057 -0.00090798 0)
(0.999177 0.000234421 0)
(0.999653 0.00123308 0)
(1.00049 -0.00130796 0)
(0.999173 0.000814625 0)
(1.00011 -3.19326e-05 0)
(1.00069 -0.000618463 0)
(1.00023 0.00054358 0)
(1.00104 0.00021581 0)
(1.00178 0.000666676 0)
(1.00194 0.00196452 0)
(1.00239 0.00295846 0)
(1.00292 0.00427809 0)
(1.00302 0.00607214 0)
(1.00284 0.00790758 0)
(1.00031 0.00106406 0)
(1.0002 -0.00166226 0)
(0.999891 0.0019577 0)
(0.999732 -0.00163469 0)
(0.999212 0.00213247 0)
(1.00051 -0.000665491 0)
(0.999263 6.4411e-05 0)
(0.9996 0.00129369 0)
(1.00049 -0.00124824 0)
(0.99924 0.000671164 0)
(1.00004 8.50025e-05 0)
(1.00073 -0.00068326 0)
(1.0003 0.000512219 0)
(1.00106 0.000370779 0)
(1.00192 0.000697295 0)
(1.00213 0.00204339 0)
(1.0026 0.00312422 0)
(1.00322 0.00433149 0)
(1.0034 0.00602506 0)
(1.00322 0.00784701 0)
(1.00028 0.0010306 0)
(1.00022 -0.00153959 0)
(0.999888 0.00179094 0)
(0.999749 -0.00141466 0)
(0.999242 0.00188981 0)
(1.00045 -0.00044761 0)
(0.999345 -7.53974e-05 0)
(0.999552 0.00132063 0)
(1.00048 -0.00115809 0)
(0.999312 0.000519893 0)
(0.99998 0.000201147 0)
(1.00076 -0.00070333 0)
(1.00038 0.000471961 0)
(1.00109 0.000543298 0)
(1.00206 0.000765886 0)
(1.00235 0.00210935 0)
(1.00281 0.00328625 0)
(1.0035 0.00440782 0)
(1.00378 0.00596688 0)
(1.0036 0.00774163 0)
(1.00026 0.000995543 0)
(1.00025 -0.00141009 0)
(0.999887 0.00162543 0)
(0.999764 -0.00120867 0)
(0.999274 0.00166493 0)
(1.00039 -0.000254113 0)
(0.999424 -0.000188137 0)
(0.999511 0.00131874 0)
(1.00045 -0.00104148 0)
(0.999387 0.000361047 0)
(0.999922 0.000316966 0)
(1.00079 -0.000673502 0)
(1.00047 0.000429931 0)
(1.00112 0.000725453 0)
(1.00219 0.000870765 0)
(1.00258 0.00216235 0)
(1.00304 0.00342926 0)
(1.00377 0.00450432 0)
(1.00415 0.00591675 0)
(1.004 0.00760327 0)
(1.00024 0.000958822 0)
(1.00027 -0.00127648 0)
(0.999888 0.00146825 0)
(0.999775 -0.00102247 0)
(0.999306 0.00146106 0)
(1.00033 -8.59224e-05 0)
(0.999497 -0.000275479 0)
(0.999477 0.00129071 0)
(1.00041 -0.000903203 0)
(0.999466 0.000207876 0)
(0.999871 0.000423392 0)
(1.0008 -0.00059129 0)
(1.00058 0.000400504 0)
(1.00117 0.000906874 0)
(1.00231 0.00101052 0)
(1.00282 0.00220484 0)
(1.00328 0.00354268 0)
(1.00404 0.00460719 0)
(1.0045 0.00588133 0)
(1.00439 0.00744577 0)
(1.00022 0.000920712 0)
(1.00028 -0.00114327 0)
(0.99989 0.00132777 0)
(0.999783 -0.000855174 0)
(0.99934 0.00127323 0)
(1.00027 6.53037e-05 0)
(0.999564 -0.00034053 0)
(0.999451 0.001242 0)
(1.00037 -0.000747645 0)
(0.999545 8.05883e-05 0)
(0.999832 0.000513948 0)
(1.00081 -0.000459871 0)
(1.0007 0.000396584 0)
(1.00123 0.00107867 0)
(1.00243 0.00118176 0)
(1.00306 0.00224429 0)
(1.00354 0.00362125 0)
(1.0043 0.00469769 0)
(1.00484 0.00585259 0)
(1.00478 0.00727654 0)
(1.0002 0.000882201 0)
(1.00029 -0.00101488 0)
(0.999893 0.00120714 0)
(0.999787 -0.000703082 0)
(0.999374 0.00109413 0)
(1.00021 0.000201695 0)
(0.999625 -0.000386175 0)
(0.999434 0.00117176 0)
(1.00031 -0.000575112 0)
(0.999624 -1.43665e-05 0)
(0.999807 0.000591541 0)
(1.00081 -0.000289775 0)
(1.00082 0.000424827 0)
(1.0013 0.00124183 0)
(1.00254 0.00137743 0)
(1.00331 0.00228748 0)
(1.00381 0.00365841 0)
(1.00457 0.00475545 0)
(1.00516 0.00581404 0)
(1.00515 0.00709484 0)
(1.00018 0.000842557 0)
(1.0003 -0.0008936 0)
(0.999896 0.00110577 0)
(0.999788 -0.000562478 0)
(0.99941 0.000921271 0)
(1.00015 0.000316195 0)
(0.999677 -0.000402766 0)
(0.999428 0.00107515 0)
(1.00026 -0.00038811 0)
(0.999699 -6.88107e-05 0)
(0.999797 0.000652747 0)
(1.00081 -9.76183e-05 0)
(1.00095 0.000481577 0)
(1.00139 0.00139867 0)
(1.00264 0.00159229 0)
(1.00354 0.00234606 0)
(1.00409 0.00366041 0)
(1.00483 0.00477447 0)
(1.00547 0.00575789 0)
(1.00551 0.00690379 0)
(1.00016 0.000802708 0)
(1.0003 -0.000785177 0)
(0.9999 0.00102099 0)
(0.999784 -0.000425032 0)
(0.999446 0.000755249 0)
(1.0001 0.000409018 0)
(0.99972 -0.00038576 0)
(0.999432 0.000962383 0)
(1.0002 -0.000204002 0)
(0.99977 -7.26192e-05 0)
(0.999803 0.000711224 0)
(1.0008 0.000115829 0)
(1.00108 0.000558301 0)
(1.00151 0.00153882 0)
(1.00274 0.00181476 0)
(1.00376 0.00242739 0)
(1.00438 0.00363915 0)
(1.0051 0.00475375 0)
(1.00576 0.00567632 0)
(1.00585 0.00669876 0)
(1.00015 0.000763392 0)
(1.00031 -0.000687562 0)
(0.999906 0.000941801 0)
(0.999775 -0.000283663 0)
(0.999482 0.000598559 0)
(1.00005 0.000483126 0)
(0.999753 -0.000337956 0)
(0.999446 0.000849084 0)
(1.00014 -3.98982e-05 0)
(0.999836 -2.30978e-05 0)
(0.999825 0.000779514 0)
(1.0008 0.000341672 0)
(1.00121 0.000653565 0)
(1.00163 0.00165426 0)
(1.00283 0.00203317 0)
(1.00396 0.00253514 0)
(1.00467 0.0036125 0)
(1.00538 0.0046998 0)
(1.00604 0.00556841 0)
(1.00616 0.00647582 0)
(1.00013 0.000722889 0)
(1.00031 -0.000595529 0)
(0.999915 0.000865856 0)
(0.999762 -0.000130942 0)
(0.999517 0.00045165 0)
(1.00001 0.000520285 0)
(0.999778 -0.000258464 0)
(0.999467 0.000757794 0)
(1.0001 0.000111867 0)
(0.9999 7.09369e-05 0)
(0.99986 0.000866827 0)
(1.00079 0.000571464 0)
(1.00133 0.000775895 0)
(1.00178 0.00175029 0)
(1.00293 0.00223614 0)
(1.00415 0.00266794 0)
(1.00494 0.0035999 0)
(1.00565 0.00462999 0)
(1.0063 0.00544583 0)
(1.00646 0.00624416 0)
(1.00011 0.00067833 0)
(1.00031 -0.000503804 0)
(0.999929 0.000783574 0)
(0.999744 3.88813e-05 0)
(0.999548 0.000339589 0)
(0.99998 0.000506859 0)
(0.9998 -0.000160446 0)
(0.999495 0.000697198 0)
(1.00007 0.000243834 0)
(0.999964 0.000182637 0)
(0.999909 0.000972281 0)
(1.00079 0.000808836 0)
(1.00145 0.000924325 0)
(1.00194 0.00182771 0)
(1.00305 0.00240321 0)
(1.00431 0.00280625 0)
(1.0052 0.00360002 0)
(1.00592 0.00455039 0)
(1.00655 0.00531193 0)
(1.00673 0.00600844 0)
(1.0001 0.000633431 0)
(1.00031 -0.000407922 0)
(0.999947 0.00067722 0)
(0.999724 0.000217104 0)
(0.99957 0.00027983 0)
(0.99996 0.000452737 0)
(0.999821 -4.80245e-05 0)
(0.999526 0.000676853 0)
(1.00004 0.000361906 0)
(1.00003 0.000297834 0)
(0.999972 0.00108834 0)
(1.0008 0.00105699 0)
(1.00156 0.00109966 0)
(1.00211 0.0018945 0)
(1.00318 0.00253001 0)
(1.00447 0.002933 0)
(1.00544 0.00360538 0)
(1.00618 0.0044615 0)
(1.0068 0.00516567 0)
(1.00697 0.00576907 0)
(1.00009 0.000584492 0)
(1.0003 -0.000303826 0)
(0.999971 0.000559484 0)
(0.999707 0.000379913 0)
(0.99958 0.000272178 0)
(0.999949 0.000374547 0)
(0.999847 5.83811e-05 0)
(0.999559 0.000708922 0)
(1.00003 0.000492368 0)
(1.0001 0.000416838 0)
(1.00005 0.00120402 0)
(1.00081 0.00131025 0)
(1.00165 0.00130514 0)
(1.00228 0.00196745 0)
(1.00332 0.00262306 0)
(1.00462 0.00303801 0)
(1.00567 0.00361046 0)
(1.00643 0.00436509 0)
(1.00702 0.00500761 0)
(1.00719 0.0055261 0)
(1.00008 0.000531536 0)
(1.00029 -0.000195936 0)
(0.999998 0.000441642 0)
(0.999695 0.000516207 0)
(0.999576 0.000327691 0)
(0.999943 0.000301044 0)
(0.999884 0.00011121 0)
(0.999599 0.000758046 0)
(1.00001 0.00064487 0)
(1.00018 0.00054894 0)
(1.00015 0.00130545 0)
(1.00084 0.00155204 0)
(1.00172 0.00153093 0)
(1.00245 0.00205634 0)
(1.00347 0.00268467 0)
(1.00477 0.00310988 0)
(1.00587 0.00360624 0)
(1.00667 0.00426207 0)
(1.00723 0.00484051 0)
(1.00738 0.00528229 0)
(1.00007 0.000479968 0)
(1.00027 -8.93766e-05 0)
(1.00003 0.000335014 0)
(0.999692 0.00060327 0)
(0.99956 0.000443709 0)
(0.99993 0.000257608 0)
(0.999929 0.000124339 0)
(0.999651 0.00079911 0)
(1.00001 0.000823173 0)
(1.00025 0.000714017 0)
(1.00026 0.00139526 0)
(1.00088 0.0017698 0)
(1.00179 0.00176955 0)
(1.00259 0.00216923 0)
(1.00362 0.00272902 0)
(1.00491 0.00314603 0)
(1.00606 0.00358238 0)
(1.00689 0.00414739 0)
(1.00743 0.00466139 0)
(1.00755 0.00503447 0)
(1.00006 0.00042764 0)
(1.00025 1.04502e-05 0)
(1.00005 0.000255044 0)
(0.999701 0.000624384 0)
(0.999536 0.000593367 0)
(0.999908 0.000267961 0)
(0.99998 0.000127045 0)
(0.99972 0.000823701 0)
(1.00001 0.00100589 0)
(1.00031 0.000914589 0)
(1.00038 0.00149286 0)
(1.00094 0.00195258 0)
(1.00185 0.00201042 0)
(1.00272 0.00230485 0)
(1.00377 0.0027767 0)
(1.00506 0.00315593 0)
(1.00624 0.00353472 0)
(1.00709 0.00401502 0)
(1.00761 0.00446711 0)
(1.00769 0.00478006 0)
(1.00005 0.000378814 0)
(1.00022 9.96662e-05 0)
(1.00008 0.000200276 0)
(0.999722 0.000591996 0)
(0.999512 0.000745323 0)
(0.999871 0.000356328 0)
(1.00003 0.000123986 0)
(0.999806 0.000819753 0)
(1.00004 0.00117378 0)
(1.00037 0.00113876 0)
(1.0005 0.00162174 0)
(1.00101 0.00210761 0)
(1.0019 0.00223882 0)
(1.00283 0.0024564 0)
(1.0039 0.00283803 0)
(1.00519 0.00315415 0)
(1.00639 0.00346534 0)
(1.00727 0.00386015 0)
(1.00777 0.00425213 0)
(1.00781 0.00451567 0)
(1.00004 0.000332797 0)
(1.00019 0.000180136 0)
(1.00009 0.000175362 0)
(0.999754 0.000528984 0)
(0.999497 0.000868763 0)
(0.999818 0.000520211 0)
(1.00006 0.000148329 0)
(0.999909 0.000787968 0)
(1.00008 0.0013153 0)
(1.00042 0.00137395 0)
(1.00062 0.00177808 0)
(1.0011 0.00225169 0)
(1.00196 0.00243854 0)
(1.00292 0.00261364 0)
(1.00401 0.00290891 0)
(1.00529 0.00315431 0)
(1.00652 0.00338211 0)
(1.00743 0.0036833 0)
(1.00792 0.00400829 0)
(1.00791 0.00423226 0)
(1.00004 0.000292435 0)
(1.00016 0.000240519 0)
(1.00009 0.000183209 0)
(0.999794 0.000462631 0)
(0.999497 0.000940054 0)
(0.999756 0.000725522 0)
(1.00008 0.000247279 0)
(1.00002 0.000751946 0)
(1.00016 0.00139855 0)
(1.00048 0.00160116 0)
(1.00072 0.0019532 0)
(1.0012 0.00239436 0)
(1.00202 0.00261253 0)
(1.00299 0.00276623 0)
(1.0041 0.00298821 0)
(1.00537 0.0031652 0)
(1.00662 0.00330233 0)
(1.00756 0.00349534 0)
(1.00805 0.00373618 0)
(1.00799 0.00391822 0)
(1.00003 0.000259761 0)
(1.00013 0.000280364 0)
(1.00009 0.000213803 0)
(0.999836 0.000401745 0)
(0.999516 0.000962629 0)
(0.999696 0.00092934 0)
(1.00007 0.000426769 0)
(1.00013 0.000752435 0)
(1.00026 0.00142927 0)
(1.00055 0.00178669 0)
(1.00082 0.00214886 0)
(1.00129 0.00253952 0)
(1.00208 0.00276992 0)
(1.00305 0.00290434 0)
(1.00416 0.00307111 0)
(1.00543 0.00318529 0)
(1.00668 0.00324001 0)
(1.00764 0.00331468 0)
(1.00815 0.00344935 0)
(1.00806 0.00356969 0)
(1.00003 0.000232615 0)
(1.00011 0.000304234 0)
(1.00007 0.000263636 0)
(0.999876 0.000352597 0)
(0.999555 0.000942232 0)
(0.999648 0.00111942 0)
(1.00004 0.000655359 0)
(1.00022 0.000795061 0)
(1.00038 0.00144848 0)
(1.00065 0.00191325 0)
(1.00092 0.00233895 0)
(1.00137 0.00269682 0)
(1.00214 0.00290897 0)
(1.0031 0.00302392 0)
(1.00421 0.00314287 0)
(1.00545 0.00320693 0)
(1.00669 0.00319347 0)
(1.00767 0.00316009 0)
(1.00819 0.00317214 0)
(1.00811 0.00320558 0)
(1.00002 0.000213033 0)
(1.00009 0.000307917 0)
(1.00005 0.000326405 0)
(0.999908 0.000337914 0)
(0.999613 0.000882221 0)
(0.999621 0.0012725 0)
(0.999998 0.000931019 0)
(1.00029 0.000885124 0)
(1.0005 0.00145988 0)
(1.00077 0.0020037 0)
(1.00103 0.00249096 0)
(1.00145 0.00285995 0)
(1.00218 0.00303974 0)
(1.00314 0.00312338 0)
(1.00424 0.00319845 0)
(1.00545 0.00321994 0)
(1.00666 0.0031527 0)
(1.00764 0.00303265 0)
(1.00818 0.00292494 0)
(1.0081 0.00285087 0)
(1.00002 0.000200894 0)
(1.00007 0.000300009 0)
(1.00003 0.000380345 0)
(0.99993 0.000365325 0)
(0.999683 0.000822804 0)
(0.999627 0.00134633 0)
(0.999946 0.00121738 0)
(1.00032 0.00106079 0)
(1.00063 0.00146902 0)
(1.0009 0.00206163 0)
(1.00115 0.0026105 0)
(1.00153 0.00300951 0)
(1.00222 0.00317491 0)
(1.00315 0.00320842 0)
(1.00424 0.00323515 0)
(1.00543 0.00321642 0)
(1.0066 0.00310841 0)
(1.00756 0.0029207 0)
(1.00809 0.00271561 0)
(1.00803 0.00252725 0)
(1.00001 0.000190849 0)
(1.00005 0.000293406 0)
(1.00002 0.000427927 0)
(0.999946 0.00040958 0)
(0.999756 0.000786591 0)
(0.999664 0.00136926 0)
(0.999911 0.00144845 0)
(1.00033 0.00130654 0)
(1.00073 0.0015262 0)
(1.00106 0.0020736 0)
(1.00129 0.00269177 0)
(1.00161 0.0031403 0)
(1.00224 0.00331371 0)
(1.00315 0.0032943 0)
(1.00423 0.00325615 0)
(1.00538 0.00319262 0)
(1.00651 0.00305484 0)
(1.00742 0.00281604 0)
(1.00794 0.0025363 0)
(1.00789 0.0022491 0)
(1.00001 0.00018444 0)
(1.00005 0.000278658 0)
(1.00001 0.000474532 0)
(0.999955 0.000476919 0)
(0.99983 0.000753956 0)
(0.999726 0.00137029 0)
(0.999901 0.00163053 0)
(1.00032 0.00155102 0)
(1.00081 0.00165427 0)
(1.00121 0.00207463 0)
(1.00145 0.00271318 0)
(1.00171 0.00323487 0)
(1.00225 0.00344748 0)
(1.00311 0.00338729 0)
(1.00418 0.00326958 0)
(1.00531 0.00314521 0)
(1.00639 0.00297982 0)
(1.00725 0.00271012 0)
(1.00773 0.0023722 0)
(1.00768 0.00200995 0)
(1.00001 0.000183029 0)
(1.00004 0.000265435 0)
(1 0.000497546 0)
(0.999958 0.000568106 0)
(0.999898 0.00075013 0)
(0.999815 0.00133008 0)
(0.999919 0.00177935 0)
(1.0003 0.00178172 0)
(1.00085 0.00181125 0)
(1.00135 0.00210383 0)
(1.00164 0.00268167 0)
(1.00184 0.00326506 0)
(1.00226 0.00355254 0)
(1.00304 0.00348776 0)
(1.00409 0.00328713 0)
(1.00521 0.00307932 0)
(1.00624 0.00287444 0)
(1.00704 0.00258885 0)
(1.00747 0.00222034 0)
(1.0074 0.00180039 0)
(1.00001 0.000178715 0)
(1.00004 0.000268155 0)
(1.00001 0.00050342 0)
(0.999963 0.00065127 0)
(0.999952 0.000794729 0)
(0.999921 0.00127389 0)
(0.999974 0.00184886 0)
(1.00029 0.00200875 0)
(1.00087 0.00198366 0)
(1.00145 0.00215339 0)
(1.00182 0.00263123 0)
(1.002 0.00322226 0)
(1.0023 0.00360149 0)
(1.00296 0.00357989 0)
(1.00395 0.00332349 0)
(1.00507 0.00301186 0)
(1.00608 0.00274391 0)
(1.00681 0.00244029 0)
(1.00717 0.00207192 0)
(1.00707 0.00162558 0)
(1.00001 0.000172817 0)
(1.00004 0.000276812 0)
(1.00002 0.000508731 0)
(0.999975 0.000719925 0)
(0.999997 0.000859729 0)
(1.00003 0.00124835 0)
(1.00007 0.00183963 0)
(1.0003 0.00217771 0)
(1.00086 0.00218441 0)
(1.00153 0.00221977 0)
(1.00198 0.00257804 0)
(1.00218 0.00312352 0)
(1.00237 0.00357485 0)
(1.00288 0.00363409 0)
(1.00377 0.00337249 0)
(1.00486 0.00296695 0)
(1.00587 0.00260638 0)
(1.00657 0.00226783 0)
(1.00686 0.00190956 0)
(1.0067 0.00147999 0)
(1.00001 0.000167329 0)
(1.00004 0.000293878 0)
(1.00004 0.00050321 0)
(0.999993 0.000784313 0)
(1.00003 0.000934298 0)
(1.00013 0.00124196 0)
(1.00019 0.00180762 0)
(1.00035 0.00225837 0)
(1.00085 0.00237414 0)
(1.00156 0.00232361 0)
(1.00212 0.0025296 0)
(1.00237 0.00299001 0)
(1.00248 0.00346906 0)
(1.00282 0.00362415 0)
(1.00356 0.00340793 0)
(1.00459 0.0029524 0)
(1.0056 0.00249103 0)
(1.0063 0.00208981 0)
(1.00655 0.00173253 0)
(1.00633 0.00134233 0)
(1.00001 0.000157943 0)
(1.00004 0.000322872 0)
(1.00007 0.000495949 0)
(1.00002 0.000824263 0)
(1.00007 0.00102908 0)
(1.00022 0.00124757 0)
(1.00032 0.0017619 0)
(1.00044 0.00228629 0)
(1.00084 0.00250545 0)
(1.00155 0.00245291 0)
(1.00221 0.00251101 0)
(1.00254 0.0028367 0)
(1.00262 0.00330059 0)
(1.0028 0.00353338 0)
(1.00335 0.00340477 0)
(1.00427 0.00295178 0)
(1.00526 0.00241933 0)
(1.00599 0.00193803 0)
(1.00624 0.00155791 0)
(1.00599 0.00120301 0)
(1.00001 0.000148846 0)
(1.00004 0.000351856 0)
(1.00009 0.000502515 0)
(1.00006 0.000834799 0)
(1.0001 0.00111864 0)
(1.00029 0.00129023 0)
(1.00045 0.00169804 0)
(1.00055 0.00226513 0)
(1.00086 0.00258895 0)
(1.00152 0.00256306 0)
(1.00224 0.00253133 0)
(1.00268 0.00269123 0)
(1.00278 0.00308555 0)
(1.00282 0.00336895 0)
(1.00317 0.00333852 0)
(1.00392 0.00294911 0)
(1.00486 0.0023868 0)
(1.00561 0.00184165 0)
(1.00591 0.0014111 0)
(1.00567 0.00107152 0)
(1.00001 0.000140965 0)
(1.00004 0.000377022 0)
(1.00011 0.000520473 0)
(1.00011 0.000833425 0)
(1.00013 0.00117732 0)
(1.00034 0.00135941 0)
(1.00057 0.00165788 0)
(1.00069 0.00217427 0)
(1.00091 0.00262012 0)
(1.00149 0.00264905 0)
(1.00223 0.00255807 0)
(1.00277 0.00258751 0)
(1.00293 0.00284696 0)
(1.00289 0.00314787 0)
(1.00305 0.00320473 0)
(1.00359 0.0029195 0)
(1.00442 0.00238363 0)
(1.00518 0.00179842 0)
(1.00554 0.00131467 0)
(1.00536 0.000957436 0)
(1.00001 0.000134602 0)
(1.00003 0.000396683 0)
(1.00013 0.000548101 0)
(1.00016 0.000824379 0)
(1.00018 0.0012115 0)
(1.00038 0.00142171 0)
(1.00067 0.00165458 0)