/*--------------------------------*- C++ -*----------------------------------*\
| =========                 |                                                 |
| \\      /  F ield         | OpenFOAM: The Open Source CFD Toolbox           |
|  \\    /   O peration     | Version:  v2012                                 |
|   \\  /    A nd           | Website:  www.openfoam.com                      |
|    \\/     M anipulation  |                                                 |
\*---------------------------------------------------------------------------*/
FoamFile
{
    version     2.0;
    format      ascii;
    class       surfaceScalarField;
    location    "3.85";
    object      phi;
}
// * * * * * * * * * * * * * * * * * * * * * * * * * * * * * * * * * * * * * //

dimensions      [0 3 -1 0 0 0 0];
oriented        oriented;


internalField   nonuniform List<scalar> 
34900
(
1.17064e-06
1.88691e-07
1.16331e-06
-3.31695e-07
1.17079e-06
4.43969e-07
1.15239e-06
-5.18536e-07
1.16624e-06
3.89044e-07
1.14717e-06
-2.86026e-07
1.15926e-06
5.89607e-08
1.15081e-06
2.90192e-08
1.16067e-06
1.00056e-08
1.15345e-06
6.19836e-08
1.16238e-06
7.9355e-08
1.15334e-06
4.93011e-08
1.1613e-06
8.65082e-08
1.15027e-06
4.40598e-08
1.15759e-06
8.09011e-08
1.14462e-06
3.11854e-08
1.15126e-06
7.53464e-08
1.13718e-06
2.33081e-08
1.13889e-06
8.81419e-08
2.76854e-08
1.10163e-06
1.22408e-06
1.88873e-07
1.21776e-06
-3.25371e-07
1.22215e-06
4.39577e-07
1.20476e-06
-5.01152e-07
1.2156e-06
3.78208e-07
1.19993e-06
-2.70358e-07
1.20897e-06
4.99228e-08
1.20606e-06
3.19291e-08
1.21253e-06
3.53262e-09
1.21111e-06
6.34072e-08
1.21484e-06
7.56285e-08
1.2131e-06
5.10366e-08
1.21287e-06
8.67368e-08
1.21274e-06
4.41879e-08
1.20753e-06
8.61196e-08
1.21052e-06
2.8188e-08
1.1981e-06
8.77729e-08
1.20663e-06
1.47782e-08
1.18109e-06
1.13679e-07
2.36147e-08
1.18516e-06
1.27946e-06
1.92197e-07
1.27446e-06
-3.2037e-07
1.27613e-06
4.37902e-07
1.26076e-06
-4.85778e-07
1.2675e-06
3.71471e-07
1.25751e-06
-2.60377e-07
1.26063e-06
4.68071e-08
1.26521e-06
2.73465e-08
1.2659e-06
2.84068e-09
1.27199e-06
5.7317e-08
1.26919e-06
7.84302e-08
1.27523e-06
4.50047e-08
1.2683e-06
9.36666e-08
1.27501e-06
3.74691e-08
1.26499e-06
9.61429e-08
1.27133e-06
2.18489e-08
1.25957e-06
9.95289e-08
1.26333e-06
1.10225e-08
1.25072e-06
1.26292e-07
3.72597e-08
1.23707e-06
1.33773e-06
1.98567e-07
1.3346e-06
-3.17237e-07
1.33432e-06
4.38178e-07
1.32228e-06
-4.73732e-07
1.32494e-06
3.68809e-07
1.32163e-06
-2.5707e-07
1.31818e-06
5.02596e-08
1.32826e-06
1.72668e-08
1.32475e-06
6.35186e-09
1.33411e-06
4.79547e-08
1.3294e-06
8.31406e-08
1.33698e-06
3.74279e-08
1.33068e-06
9.99611e-08
1.33624e-06
3.19076e-08
1.33001e-06
1.02377e-07
1.33238e-06
1.94743e-08
1.32698e-06
1.04935e-07
1.32462e-06
1.33796e-08
1.31941e-06
1.31497e-07
5.48067e-08
1.30187e-06
1.40002e-06
2.06902e-07
1.39849e-06
-3.15709e-07
1.39772e-06
4.38952e-07
1.38918e-06
-4.65195e-07
1.38949e-06
3.68497e-07
1.39092e-06
-2.58501e-07
1.38368e-06
5.75033e-08
1.39491e-06
6.04169e-09
1.39076e-06
1.04986e-08
1.39897e-06
3.97389e-08
1.3962e-06
8.5916e-08
1.40172e-06
3.19057e-08
1.39874e-06
1.02946e-07
1.40167e-06
2.89739e-08
1.39905e-06
1.05002e-07
1.39902e-06
1.94964e-08
1.39641e-06
1.0755e-07
1.392e-06
1.77912e-08
1.38883e-06
1.34666e-07
7.22699e-08
1.37137e-06
1.46714e-06
2.15434e-07
1.46633e-06
-3.14892e-07
1.4665e-06
4.38777e-07
1.46066e-06
-4.59348e-07
1.46077e-06
3.68379e-07
1.46385e-06
-2.61575e-07
1.45624e-06
6.5109e-08
1.46535e-06
-3.06339e-09
1.46258e-06
1.32684e-08
1.46825e-06
3.40658e-08
1.4678e-06
8.63698e-08
1.47131e-06
2.83941e-08
1.47054e-06
1.03712e-07
1.47215e-06
2.73632e-08
1.47113e-06
1.06022e-07
1.4703e-06
2.03324e-08
1.46883e-06
1.09017e-07
1.46325e-06
2.33708e-08
1.46159e-06
1.36327e-07
8.97051e-08
1.44415e-06
1.53923e-06
2.22421e-07
1.53818e-06
-3.13845e-07
1.54009e-06
4.36873e-07
1.53579e-06
-4.55046e-07
1.53706e-06
3.67106e-07
1.53947e-06
-2.63992e-07
1.53338e-06
7.12044e-08
1.53941e-06
-9.09112e-09
1.53793e-06
1.47477e-08
1.54166e-06
3.03321e-08
1.54239e-06
8.56436e-08
1.54486e-06
2.59217e-08
1.54507e-06
1.03506e-07
1.54618e-06
2.62467e-08
1.54598e-06
1.06223e-07
1.5446e-06
2.17134e-08
1.54417e-06
1.09449e-07
1.53738e-06
3.01584e-08
1.53718e-06
1.36528e-07
1.06778e-07
1.52011e-06
1.61568e-06
2.26871e-07
1.61391e-06
-3.12078e-07
1.6175e-06
4.33287e-07
1.61382e-06
-4.51366e-07
1.61655e-06
3.64371e-07
1.6174e-06
-2.64841e-07
1.61308e-06
7.55288e-08
1.61653e-06
-1.25472e-08
1.61558e-06
1.56962e-08
1.6182e-06
2.7719e-08
1.61925e-06
8.45911e-08
1.62121e-06
2.39588e-08
1.62191e-06
1.02813e-07
1.6227e-06
2.54543e-08
1.62322e-06
1.05696e-07
1.62121e-06
2.37264e-08
1.62188e-06
1.08776e-07
1.61397e-06
3.8075e-08
1.61495e-06
1.35548e-07
1.229e-07
1.59883e-06
1.69567e-06
2.28772e-07
1.69322e-06
-3.09627e-07
1.69797e-06
4.28536e-07
1.69434e-06
-4.47728e-07
1.69831e-06
3.60395e-07
1.69761e-06
-2.64144e-07
1.6947e-06
7.84427e-08
1.69644e-06
-1.42837e-08
1.69559e-06
1.65482e-08
1.69749e-06
2.58118e-08
1.69859e-06
8.34908e-08
1.70016e-06
2.23918e-08
1.70125e-06
1.01724e-07
1.70165e-06
2.50561e-08
1.70295e-06
1.0439e-07
1.70021e-06
2.64679e-08
1.70197e-06
1.07014e-07
1.69313e-06
4.69198e-08
1.6949e-06
1.33779e-07
1.37529e-07
1.68027e-06
1.77874e-06
2.28754e-07
1.77591e-06
-3.06795e-07
1.78129e-06
4.23149e-07
1.77737e-06
-4.43801e-07
1.78232e-06
3.55439e-07
1.78039e-06
-2.62215e-07
1.77861e-06
8.02292e-08
1.77929e-06
-1.49707e-08
1.77855e-06
1.72976e-08
1.77989e-06
2.44664e-08
1.78107e-06
8.2307e-08
1.7822e-06
2.12662e-08
1.78372e-06
1.00204e-07
1.78359e-06
2.51849e-08
1.78572e-06
1.02264e-07
1.78218e-06
3.00069e-08
1.7849e-06
1.04297e-07
1.77541e-06
5.64097e-08
1.77747e-06
1.31711e-07
1.50227e-07
1.76478e-06
1.86493e-06
2.27569e-07
1.862e-06
-3.03859e-07
1.86771e-06
4.17442e-07
1.8633e-06
-4.39392e-07
1.86909e-06
3.49641e-07
1.86619e-06
-2.59308e-07
1.86547e-06
8.09489e-08
1.86551e-06
-1.50077e-08
1.86508e-06
1.772e-08
1.86593e-06
2.36226e-08
1.86735e-06
8.08867e-08
1.86795e-06
2.0658e-08
1.86997e-06
9.81845e-08
1.86919e-06
2.59724e-08
1.87212e-06
9.9327e-08
1.86778e-06
3.4355e-08
1.87119e-06
1.00886e-07
1.86141e-06
6.61898e-08
1.86324e-06
1.2988e-07
1.60687e-07
1.85278e-06
1.95464e-06
2.2577e-07
1.95173e-06
-3.00953e-07
1.95766e-06
4.11515e-07
1.95266e-06
-4.34397e-07
1.95926e-06
3.43048e-07
1.95548e-06
-2.55536e-07
1.95588e-06
8.05543e-08
1.95544e-06
-1.45727e-08
1.9556e-06
1.75644e-08
1.95597e-06
2.32476e-08
1.95781e-06
7.90497e-08
1.95784e-06
2.06309e-08
1.96044e-06
9.55858e-08
1.95891e-06
2.75041e-08
1.96258e-06
9.56479e-08
1.95751e-06
3.9427e-08
1.96125e-06
9.71469e-08
1.95158e-06
7.58593e-08
1.95269e-06
1.28768e-07
1.6879e-07
1.94459e-06
2.04831e-06
2.23652e-07
2.04543e-06
-2.98078e-07
2.05161e-06
4.05341e-07
2.04597e-06
-4.28762e-07
2.05335e-06
3.35666e-07
2.04873e-06
-2.50914e-07
2.05028e-06
7.90035e-08
2.0494e-06
-1.3687e-08
2.05032e-06
1.66385e-08
2.05022e-06
2.33445e-08
2.05264e-06
7.66338e-08
2.05205e-06
2.12236e-08
2.05529e-06
9.23438e-08
2.05301e-06
2.97863e-08
2.05729e-06
9.13633e-08
2.0517e-06
4.5023e-08
2.05534e-06
9.35031e-08
2.04618e-06
8.50191e-08
2.04624e-06
1.28708e-07
1.74622e-07
2.04041e-06
2.14633e-06
2.21327e-07
2.14341e-06
-2.95163e-07
2.14992e-06
3.98836e-07
2.14361e-06
-4.2246e-07
2.15179e-06
3.27486e-07
2.1463e-06
-2.45418e-07
2.14901e-06
7.62931e-08
2.1476e-06
-1.22752e-08
2.14941e-06
1.48212e-08
2.1488e-06
2.39578e-08
2.15192e-06
7.35173e-08
2.15069e-06
2.24462e-08
2.1546e-06
8.84364e-08
2.15166e-06
3.27285e-08
2.15634e-06
8.66805e-08
2.15052e-06
5.08461e-08
2.15365e-06
9.03739e-08
2.14534e-06
9.33258e-08
2.14421e-06
1.29841e-07
1.78455e-07
2.14038e-06
2.249e-06
2.18821e-07
2.24595e-06
-2.92119e-07
2.25288e-06
3.91905e-07
2.24588e-06
-4.15463e-07
2.25489e-06
3.18478e-07
2.24849e-06
-2.39013e-07
2.25234e-06
7.24377e-08
2.25029e-06
-1.02173e-08
2.25306e-06
1.20423e-08
2.25187e-06
2.51552e-08
2.25575e-06
6.96318e-08
2.25393e-06
2.42686e-08
2.25845e-06
8.39126e-08
2.25504e-06
3.61385e-08
2.25985e-06
8.18736e-08
2.25414e-06
5.65526e-08
2.2564e-06
8.81148e-08
2.24919e-06
1.00538e-07
2.24691e-06
1.32123e-07
1.8069e-07
2.24467e-06
2.35657e-06
2.16126e-07
2.35331e-06
-2.88858e-07
2.36076e-06
3.84459e-07
2.35303e-06
-4.07736e-07
2.36291e-06
3.08592e-07
2.35556e-06
-2.3166e-07
2.36056e-06
6.74406e-08
2.35773e-06
-7.38673e-09
2.36151e-06
8.26323e-09
2.35967e-06
2.69969e-08
2.36433e-06
6.4972e-08
2.36199e-06
2.66028e-08
2.36699e-06
7.89102e-08
2.3634e-06
3.97356e-08
2.36801e-06
7.7262e-08
2.36274e-06
6.18182e-08
2.3639e-06
8.69565e-08
2.35787e-06
1.0657e-07
2.35465e-06
1.35346e-07
1.81781e-07
2.35356e-06
2.46929e-06
2.13231e-07
2.46574e-06
-2.85305e-07
2.47378e-06
3.76415e-07
2.46528e-06
-3.99233e-07
2.47611e-06
2.97758e-07
2.46776e-06
-2.23311e-07
2.47392e-06
6.12823e-08
2.47021e-06
-3.67504e-09
2.475e-06
3.47088e-09
2.4725e-06
2.95025e-08
2.47786e-06
5.96065e-08
2.47518e-06
2.92824e-08
2.48043e-06
7.36594e-08
2.47699e-06
4.31803e-08
2.48108e-06
7.31668e-08
2.4765e-06
6.64012e-08
2.4765e-06
8.696e-08
2.47155e-06
1.11515e-07
2.46772e-06
1.39174e-07
1.82185e-07
2.46732e-06
2.58741e-06
2.1012e-07
2.58349e-06
-2.81389e-07
2.59221e-06
3.67693e-07
2.58287e-06
-3.89895e-07
2.59474e-06
2.85893e-07
2.58534e-06
-2.13913e-07
2.5927e-06
5.39264e-08
2.58803e-06
9.91919e-10
2.59381e-06
-2.3139e-09
2.59069e-06
3.26241e-08
2.59661e-06
5.36883e-08
2.59384e-06
3.20514e-08
2.59903e-06
6.84684e-08
2.59609e-06
4.6118e-08
2.59941e-06
6.98554e-08
2.59562e-06
7.01904e-08
2.59457e-06
8.80109e-08
2.59047e-06
1.15607e-07
2.58642e-06
1.43225e-07
1.82302e-07
2.5863e-06
2.71117e-06
2.06776e-07
2.70682e-06
-2.77041e-07
2.71631e-06
3.58207e-07
2.70607e-06
-3.79653e-07
2.71906e-06
2.72904e-07
2.70855e-06
-2.03405e-07
2.71714e-06
4.53372e-08
2.71149e-06
6.64059e-09
2.7182e-06
-9.01892e-09
2.71459e-06
3.6226e-08
2.72082e-06
4.74619e-08
2.7183e-06
3.45727e-08
2.72309e-06
6.3678e-08
2.72096e-06
4.82474e-08
2.72334e-06
6.74767e-08
2.72029e-06
7.32348e-08
2.71843e-06
8.98704e-08
2.71492e-06
1.1912e-07
2.71098e-06
1.47165e-07
1.8243e-07
2.71085e-06
2.84086e-06
2.03181e-07
2.83601e-06
-2.72183e-07
2.84635e-06
3.47858e-07
2.83513e-06
-3.68429e-07
2.84934e-06
2.58698e-07
2.83767e-06
-1.9174e-07
2.84751e-06
3.54998e-08
2.84092e-06
1.32345e-08
2.8484e-06
-1.64994e-08
2.84455e-06
4.00693e-08
2.85075e-06
4.12603e-08
2.84887e-06
3.64569e-08
2.85294e-06
5.96039e-08
2.8518e-06
4.93879e-08
2.85327e-06
6.60088e-08
2.85077e-06
7.57412e-08
2.84838e-06
9.22572e-08
2.84524e-06
1.22262e-07
2.84163e-06
1.50775e-07
1.82732e-07
2.84132e-06
2.97676e-06
1.99315e-07
2.97131e-06
-2.66728e-07
2.98263e-06
3.36535e-07
2.97034e-06
-3.56142e-07
2.98585e-06
2.4319e-07
2.973e-06
-1.78894e-07
2.98406e-06
2.44436e-08
2.97664e-06
2.06548e-08
2.98466e-06
-2.45158e-08
2.98092e-06
4.38074e-08
2.98669e-06
3.54888e-08
2.98584e-06
3.73073e-08
2.98897e-06
5.64732e-08
2.98883e-06
4.95312e-08
2.9896e-06
6.52342e-08
2.98732e-06
7.80262e-08
2.98463e-06
9.4943e-08
2.98175e-06
1.25141e-07
2.97857e-06
1.53952e-07
1.83256e-07
2.97805e-06
3.11916e-06
1.95158e-07
3.11301e-06
-2.60577e-07
3.12543e-06
3.24115e-07
3.11201e-06
-3.42714e-07
3.12888e-06
2.26318e-07
3.11487e-06
-1.64888e-07
3.12705e-06
1.22654e-08
3.11902e-06
2.86861e-08
3.12723e-06
-3.27295e-08
3.12403e-06
4.70052e-08
3.12894e-06
3.05788e-08
3.12946e-06
3.6794e-08
3.13157e-06
5.43613e-08
3.13226e-06
4.88439e-08
3.1327e-06
6.47879e-08
3.13032e-06
8.0413e-08
3.12743e-06
9.7831e-08
3.12472e-06
1.27849e-07
3.12206e-06
1.56608e-07
1.83972e-07
3.12135e-06
3.26838e-06
1.90689e-07
3.26143e-06
-2.53624e-07
3.27507e-06
3.10468e-07
3.26044e-06
-3.28085e-07
3.2787e-06
2.0806e-07
3.26362e-06
-1.49806e-07
3.27673e-06
-8.47349e-10
3.26842e-06
3.69984e-08
3.27638e-06
-4.0689e-08
3.27424e-06
4.91478e-08
3.27786e-06
2.69601e-08
3.27996e-06
3.4692e-08
3.28114e-06
5.31805e-08
3.28238e-06
4.75982e-08
3.28293e-06
6.42462e-08
3.28026e-06
8.30838e-08
3.27702e-06
1.01062e-07
3.27417e-06
1.307e-07
3.27242e-06
1.58356e-07
1.84987e-07
3.27141e-06
3.42473e-06
1.85889e-07
3.41687e-06
-2.4576e-07
3.43186e-06
2.95477e-07
3.41601e-06
-3.12234e-07
3.43561e-06
1.88457e-07
3.41963e-06
-1.33828e-07
3.43338e-06
-1.45914e-08
3.42524e-06
4.5132e-08
3.43239e-06
-4.78347e-08
3.43186e-06
4.96721e-08
3.43381e-06
2.50097e-08
3.43758e-06
3.09214e-08
3.43806e-06
5.2708e-08
3.43957e-06
4.60813e-08
3.44069e-06
6.31339e-08
3.43813e-06
8.56371e-08
3.43387e-06
1.05325e-07
3.42971e-06
1.34855e-07
3.42916e-06
1.58914e-07
1.86145e-07
3.428e-06
3.58856e-06
1.80744e-07
3.57968e-06
-2.36885e-07
3.59611e-06
2.79049e-07
3.57907e-06
-2.95194e-07
3.59989e-06
1.67635e-07
3.58331e-06
-1.17245e-07
3.59726e-06
-2.85454e-08
3.58986e-06
5.25379e-08
3.59562e-06
-5.35969e-08
3.59716e-06
4.81335e-08
3.59731e-06
2.4859e-08
3.60252e-06
2.5706e-08
3.60276e-06
5.24757e-08
3.60419e-06
4.46488e-08
3.60645e-06
6.08673e-08
3.60702e-06
8.50768e-08
3.60802e-06
1.04325e-07
3.60369e-06
1.39185e-07
3.58741e-06
1.75189e-07
1.83159e-07
3.5904e-06
3.7602e-06
1.75246e-07
3.75024e-06
-2.26923e-07
3.76815e-06
2.61144e-07
3.75003e-06
-2.77075e-07
3.77185e-06
1.45815e-07
3.75506e-06
-1.00456e-07
3.76873e-06
-4.22171e-08
3.76259e-06
5.86792e-08
3.76653e-06
-5.75367e-08
3.77027e-06
4.43933e-08
3.76892e-06
2.62066e-08
3.77493e-06
1.96948e-08
3.7758e-06
5.16035e-08
3.77684e-06
4.36093e-08
3.78085e-06
5.68567e-08
3.78554e-06
8.0389e-08
3.79083e-06
9.90388e-08
3.80018e-06
1.29831e-07
3.81353e-06
1.61836e-07
2.06113e-07
3.79058e-06
3.94004e-06
1.69397e-07
3.92895e-06
-2.15838e-07
3.94829e-06
2.41809e-07
3.92932e-06
-2.58105e-07
3.95178e-06
1.23348e-07
3.93532e-06
-8.39911e-08
3.94814e-06
-5.50327e-08
3.94378e-06
6.30323e-08
3.94559e-06
-5.93464e-08
3.95142e-06
3.85621e-08
3.94911e-06
2.85152e-08
3.9552e-06
1.36048e-08
3.95754e-06
4.92722e-08
3.95897e-06
4.21744e-08
3.96225e-06
5.35729e-08
3.95454e-06
8.81055e-08
3.94471e-06
1.08865e-07
3.93968e-06
1.3486e-07
3.93181e-06
1.69707e-07
1.99236e-07
3.93869e-06
4.12844e-06
1.6321e-07
4.11625e-06
-2.03648e-07
4.13685e-06
2.21203e-07
4.11739e-06
-2.38637e-07
4.14004e-06
1.00689e-07
4.12451e-06
-6.84601e-08
4.13591e-06
-6.64327e-08
4.13374e-06
6.52073e-08
4.13334e-06
-5.89501e-08
4.1409e-06
3.09994e-08
4.13826e-06
3.11619e-08
4.14388e-06
7.97872e-09
4.14589e-06
4.72613e-08
4.14015e-06
4.79228e-08
4.135e-06
5.87198e-08
4.13256e-06
9.05421e-08
4.12776e-06
1.13671e-07
4.12382e-06
1.38798e-07
4.12211e-06
1.71421e-07
1.95167e-07
4.12617e-06
4.3258e-06
1.56717e-07
4.31259e-06
-1.90446e-07
4.33417e-06
1.99625e-07
4.31469e-06
-2.19159e-07
4.33701e-06
7.83709e-08
4.32302e-06
-5.44716e-08
4.33259e-06
-7.5996e-08
4.3327e-06
6.50945e-08
4.33035e-06
-5.66048e-08
4.33901e-06
2.23416e-08
4.33602e-06
3.41527e-08
4.33761e-06
6.38833e-09
4.33608e-06
4.87955e-08
4.32955e-06
5.44538e-08
4.32701e-06
6.12546e-08
4.32479e-06
9.27637e-08
4.32064e-06
1.17819e-07
4.31805e-06
1.41385e-07
4.31921e-06
1.70266e-07
1.91726e-07
4.32265e-06
4.53253e-06
1.49963e-07
4.51849e-06
-1.76406e-07
4.54058e-06
1.77532e-07
4.5217e-06
-2.00282e-07
4.54312e-06
5.69526e-08
4.53122e-06
-4.25696e-08
4.53873e-06
-8.35084e-08
4.54093e-06
6.28944e-08
4.53708e-06
-5.27491e-08
4.54528e-06
1.41393e-08
4.54016e-06
3.9271e-08
4.53789e-06
8.66235e-09
4.53777e-06
4.89158e-08
4.53138e-06
6.08421e-08
4.52848e-06
6.41582e-08
4.52694e-06
9.43036e-08
4.5235e-06
1.21258e-07
4.52169e-06
1.43191e-07
4.52457e-06
1.67391e-07
1.88901e-07
4.52739e-06
4.74906e-06
1.43014e-07
4.73446e-06
-1.61797e-07
4.75646e-06
1.55532e-07
4.73886e-06
-1.82686e-07
4.75889e-06
3.69215e-08
4.74941e-06
-3.30882e-08
4.75497e-06
-8.90721e-08
4.75875e-06
5.91184e-08
4.75337e-06
-4.73722e-08
4.75893e-06
8.58415e-09
4.75261e-06
4.55929e-08
4.74876e-06
1.25031e-08
4.74948e-06
4.82004e-08
4.74374e-06
6.6581e-08
4.74007e-06
6.78245e-08
4.73906e-06
9.53202e-08
4.73647e-06
1.2385e-07
4.7354e-06
1.44258e-07
4.73821e-06
1.64584e-07
1.8575e-07
4.74136e-06
4.97586e-06
1.35951e-07
4.96104e-06
-1.46973e-07
4.98222e-06
1.34353e-07
4.96657e-06
-1.67036e-07
4.9849e-06
1.85843e-08
4.9779e-06
-2.60844e-08
4.98185e-06
-9.30186e-08
4.98621e-06
5.47585e-08
4.97818e-06
-3.93509e-08
4.98131e-06
5.46104e-09
4.97554e-06
5.1365e-08
4.97028e-06
1.7757e-08
4.97152e-06
4.6965e-08
4.96673e-06
7.1369e-08
4.96235e-06
7.21994e-08
4.96156e-06
9.6116e-08
4.95994e-06
1.2547e-07
4.95956e-06
1.44633e-07
4.96162e-06
1.62525e-07
1.8195e-07
4.96542e-06
5.2134e-06
1.28865e-07
5.19878e-06
-1.32355e-07
5.21837e-06
1.14766e-07
5.20517e-06
-1.53834e-07
5.22182e-06
1.93095e-09
5.21709e-06
-2.13545e-08
5.21964e-06
-9.55648e-08
5.22327e-06
5.11268e-08
5.21177e-06
-2.78452e-08
5.21395e-06
3.27237e-09
5.20941e-06
5.59049e-08
5.20309e-06
2.4079e-08
5.20429e-06
4.57685e-08
5.20065e-06
7.50091e-08
5.19581e-06
7.70393e-08
5.19493e-06
9.69915e-08
5.19442e-06
1.25982e-07
5.19443e-06
1.44622e-07
5.19616e-06
1.60802e-07
1.77828e-07
5.20028e-06
5.46221e-06
1.21847e-07
5.44823e-06
-1.18379e-07
5.46561e-06
9.73872e-08
5.45491e-06
-1.43139e-07
5.47029e-06
-1.34494e-08
5.46734e-06
-1.84008e-08
5.46834e-06
-9.65616e-08
5.46955e-06
4.99137e-08
5.45627e-06
-1.45662e-08
5.45772e-06
1.82242e-09
5.45475e-06
5.88758e-08
5.44769e-06
3.1141e-08
5.4483e-06
4.51525e-08
5.4459e-06
7.7412e-08
5.44093e-06
8.20102e-08
5.43977e-06
9.81492e-08
5.44031e-06
1.25444e-07
5.44059e-06
1.44338e-07
5.44232e-06
1.59079e-07
1.73589e-07
5.44655e-06
5.72282e-06
1.14983e-07
5.70993e-06
-1.05488e-07
5.72471e-06
8.2607e-08
5.71603e-06
-1.34456e-07
5.73057e-06
-2.79902e-08
5.72784e-06
-1.56656e-08
5.72486e-06
-9.3591e-08
5.72617e-06
4.86056e-08
5.7128e-06
-1.18949e-09
5.71339e-06
1.22468e-09
5.71196e-06
6.03049e-08
5.70454e-06
3.85645e-08
5.70421e-06
4.54863e-08
5.70292e-06
7.87002e-08
5.69821e-06
8.67147e-08
5.69672e-06
9.96488e-08
5.69802e-06
1.2414e-07
5.6987e-06
1.43661e-07
5.70057e-06
1.57208e-07
1.69314e-07
5.70484e-06
5.99584e-06
1.08332e-07
5.98446e-06
-9.41098e-08
5.99656e-06
7.05136e-08
5.98866e-06
-1.26559e-07
6.0016e-06
-4.09299e-08
5.99704e-06
-1.10997e-08
5.99179e-06
-8.83415e-08
5.99489e-06
4.54972e-08
5.98232e-06
1.1387e-08
5.98151e-06
2.02791e-09
5.98152e-06
6.03034e-08
5.97413e-06
4.59551e-08
5.97269e-06
4.69189e-08
5.97222e-06
7.91737e-08
5.96814e-06
9.07958e-08
5.9664e-06
1.01386e-07
5.96809e-06
1.22447e-07
5.96932e-06
1.4243e-07
5.97145e-06
1.55085e-07
1.65033e-07
5.97573e-06
6.28189e-06
1.01928e-07
6.27231e-06
-8.45269e-08
6.282e-06
6.08259e-08
6.27316e-06
-1.17723e-07
6.28377e-06
-5.15368e-08
6.27951e-06
-6.83654e-09
6.27266e-06
-8.14943e-08
6.27672e-06
4.14389e-08
6.26524e-06
2.28642e-08
6.26279e-06
4.48144e-09
6.26388e-06
5.92081e-08
6.25695e-06
5.28853e-08
6.25443e-06
4.9435e-08
6.25443e-06
7.91826e-08
6.25118e-06
9.40452e-08
6.24943e-06
1.03128e-07
6.25116e-06
1.20717e-07
6.25304e-06
1.40557e-07
6.25551e-06
1.52617e-07
1.60742e-07
6.2598e-06
6.58162e-06
9.57732e-08
6.57393e-06
-7.68334e-08
6.58172e-06
5.30361e-08
6.57085e-06
-1.06857e-07
6.57985e-06
-6.05302e-08
6.57644e-06
-3.42842e-09
6.56784e-06
-7.28989e-08
6.5721e-06
3.71807e-08
6.56204e-06
3.29302e-08
6.55793e-06
8.58339e-09
6.55963e-06
5.75152e-08
6.55355e-06
5.89663e-08
6.55011e-06
5.28725e-08
6.55024e-06
7.90554e-08
6.54787e-06
9.64064e-08
6.54637e-06
1.04634e-07
6.54794e-06
1.19147e-07
6.55043e-06
1.38067e-07
6.55332e-06
1.49725e-07
1.56403e-07
6.55766e-06
6.89572e-06
8.98448e-08
6.88974e-06
-7.0858e-08
6.8964e-06
4.63765e-08
6.88349e-06
-9.39404e-08
6.89044e-06
-6.74857e-08
6.88795e-06
-9.36561e-10
6.87775e-06
-6.2694e-08
6.88166e-06
3.32708e-08
6.87323e-06
4.13549e-08
6.86769e-06
1.41226e-08
6.86944e-06
5.57648e-08
6.86445e-06
6.3961e-08
6.86038e-06
5.69379e-08
6.86039e-06
7.90509e-08
6.85887e-06
9.792e-08
6.85776e-06
1.05748e-07
6.85914e-06
1.1776e-07
6.86214e-06
1.35071e-07
6.86551e-06
1.46354e-07
1.51958e-07
6.86996e-06
7.22489e-06
8.4094e-08
7.22025e-06
-6.62237e-08
7.22676e-06
3.98722e-08
7.21204e-06
-7.92208e-08
7.21632e-06
-7.17652e-08
7.21454e-06
8.39127e-10
7.20297e-06
-5.11197e-08
7.20608e-06
3.01603e-08
7.19938e-06
4.8048e-08
7.19278e-06
2.07265e-08
7.19411e-06
5.44388e-08
7.19024e-06
6.78254e-08
7.18589e-06
6.12855e-08
7.18563e-06
7.93201e-08
7.18489e-06
9.86588e-08
7.18421e-06
1.06428e-07
7.1855e-06
1.16464e-07
7.18887e-06
1.31703e-07
7.19274e-06
1.42486e-07
1.47338e-07
7.19736e-06
7.56986e-06
7.84567e-08
7.56619e-06
-6.25503e-08
7.57338e-06
3.26823e-08
7.55742e-06
-6.32593e-08
7.55833e-06
-7.26772e-08
7.55681e-06
2.35791e-09
7.54421e-06
-3.85233e-08
7.54615e-06
2.82238e-08
7.54111e-06
5.3087e-08
7.53391e-06
2.79312e-08
7.53446e-06
5.3889e-08
7.53159e-06
7.06895e-08
7.52729e-06
6.55933e-08
7.52671e-06
7.98943e-08
7.52666e-06
9.87082e-08
7.5264e-06
1.06688e-07
7.52773e-06
1.15133e-07
7.53135e-06
1.28086e-07
7.5357e-06
1.38141e-07
1.42477e-07
7.54056e-06
7.9314e-06
7.28644e-08
7.92821e-06
-5.93556e-08
7.9369e-06
2.39949e-08
7.9207e-06
-4.70606e-08
7.91727e-06
-6.92521e-08
7.91541e-06
4.22317e-09
7.90225e-06
-2.53624e-08
7.90271e-06
2.77577e-08
7.8991e-06
5.67033e-08
7.89176e-06
3.52693e-08
7.89136e-06
5.42911e-08
7.88925e-06
7.27952e-08
7.88522e-06
6.96244e-08
7.88441e-06
8.06999e-08
7.88495e-06
9.81715e-08
7.88511e-06
1.06529e-07
7.88657e-06
1.13672e-07
7.89035e-06
1.24307e-07
7.89512e-06
1.33373e-07
1.3732e-07
7.90027e-06
8.31028e-06
6.72692e-08
8.30706e-06
-5.61441e-08
8.31869e-06
1.23712e-08
8.30261e-06
-3.09826e-08
8.29376e-06
-6.04044e-08
8.29108e-06
6.90954e-09
8.27786e-06
-1.21474e-08
8.27665e-06
2.89687e-08
8.27409e-06
5.92645e-08
8.26702e-06
4.23351e-08
8.26567e-06
5.56493e-08
8.26405e-06
7.44129e-08
8.26042e-06
7.32487e-08
8.2595e-06
8.16198e-08
8.26053e-06
9.71426e-08
8.26114e-06
1.05922e-07
8.26279e-06
1.12025e-07
8.26666e-06
1.2043e-07
8.27178e-06
1.28257e-07
1.31834e-07
8.27727e-06
8.70727e-06
6.16628e-08
8.7046e-06
-5.34745e-08
8.71793e-06
-9.5788e-10
8.7024e-06
-1.54585e-08
8.68814e-06
-4.61405e-08
8.68463e-06
1.04175e-08
8.67191e-06
5.71871e-10
8.66892e-06
3.19596e-08
8.66691e-06
6.12722e-08
8.66042e-06
4.8829e-08
8.65825e-06
5.78213e-08
8.65687e-06
7.57859e-08
8.6537e-06
7.64215e-08
8.65277e-06
8.25527e-08
8.65422e-06
9.56906e-08
8.65531e-06
1.04837e-07
8.6572e-06
1.10131e-07
8.66113e-06
1.165e-07
8.6665e-06
1.22882e-07
1.26019e-07
8.67232e-06
9.12318e-06
5.6106e-08
9.12257e-06
-5.28644e-08
9.13536e-06
-1.37502e-08
9.11729e-06
2.60846e-09
9.10079e-06
-2.96417e-08
9.09698e-06
1.42284e-08
9.08526e-06
1.22929e-08
9.0805e-06
3.67245e-08
9.07849e-06
6.32743e-08
9.07271e-06
5.46141e-08
9.06997e-06
6.056e-08
9.06865e-06
7.71024e-08
9.06593e-06
7.91483e-08
9.06506e-06
8.34214e-08
9.06683e-06
9.39184e-08
9.06845e-06
1.03218e-07
9.07066e-06
1.07923e-07
9.07462e-06
1.12533e-07
9.08016e-06
1.17343e-07
1.19904e-07
9.08628e-06
9.55884e-06
5.07266e-08
9.55493e-06
-4.89594e-08
9.56071e-06
-1.9526e-08
9.54809e-06
1.52292e-08
9.53276e-06
-1.43094e-08
9.52912e-06
1.78634e-08
9.51866e-06
2.27506e-08
9.51231e-06
4.30781e-08
9.50985e-06
6.57351e-08
9.50474e-06
5.97235e-08
9.50173e-06
6.35677e-08
9.50038e-06
7.84554e-08
9.49806e-06
8.14688e-08
9.4973e-06
8.41782e-08
9.49927e-06
9.19545e-08
9.50147e-06
1.01014e-07
9.50407e-06
1.05324e-07
9.50809e-06
1.0851e-07
9.51371e-06
1.11731e-07
1.13548e-07
9.52006e-06
1.00152e-05
4.56614e-08
1.00029e-05
-3.66825e-08
1.00076e-05
-2.41699e-08
9.99998e-06
2.2815e-08
9.98563e-06
3.84356e-11
9.9819e-06
2.15998e-08
9.97287e-06
3.17757e-08
9.96532e-06
5.06344e-08
9.962e-06
6.90467e-08
9.95739e-06
6.4335e-08
9.95436e-06
6.65984e-08
9.95298e-06
7.98336e-08
9.95102e-06
8.34282e-08
9.95039e-06
8.48163e-08
9.95245e-06
8.989e-08
9.95524e-06
9.82203e-08
9.95832e-06
1.02249e-07
9.96247e-06
1.04359e-07
9.9681e-06
1.06097e-07
1.07024e-07
9.97463e-06
1.04933e-05
4.09624e-08
1.04753e-05
-1.86359e-08
1.0482e-05
-3.08966e-08
1.04756e-05
2.92357e-08
1.04606e-05
1.50111e-08
1.04562e-05
2.60533e-08
1.04486e-05
3.935e-08
1.04404e-05
5.8791e-08
1.0436e-05
7.34623e-08
1.04316e-05
6.8725e-08
1.04287e-05
6.94852e-08
1.04274e-05
8.11689e-08
1.04258e-05
8.50549e-08
1.04253e-05
8.53387e-08
1.04273e-05
8.78182e-08
1.04307e-05
9.48932e-08
1.04343e-05
9.86305e-08
1.04387e-05
9.99854e-08
1.04443e-05
1.00445e-07
1.00415e-07
1.04509e-05
1.09946e-05
3.63977e-08
1.09935e-05
-1.75443e-08
1.09848e-05
-2.22514e-08
1.09745e-05
3.95981e-08
1.0959e-05
3.05415e-08
1.09532e-05
3.17869e-08
1.09468e-05
4.57371e-08
1.09386e-05
6.69936e-08
1.0933e-05
7.90476e-08
1.09285e-05
7.32798e-08
1.09258e-05
7.21892e-08
1.09246e-05
8.23649e-08
1.09233e-05
8.63336e-08
1.09229e-05
8.57137e-08
1.09249e-05
8.58517e-08
1.09287e-05
9.11061e-08
1.09329e-05
9.4425e-08
1.09376e-05
9.5278e-08
1.09433e-05
9.47255e-08
9.37682e-08
1.095e-05
1.15194e-05
3.23717e-08
1.15038e-05
-1.91551e-09
1.15036e-05
-2.21169e-08
1.14981e-05
4.51295e-08
1.14821e-05
4.65422e-08
1.14742e-05
3.9661e-08
1.14685e-05
5.14252e-08
1.14608e-05
7.47533e-08
1.14542e-05
8.55709e-08
1.14492e-05
7.83251e-08
1.14466e-05
7.47844e-08
1.14457e-05
8.33065e-08
1.14448e-05
8.721e-08
1.14446e-05
8.58594e-08
1.14464e-05
8.41277e-08
1.14505e-05
8.69641e-08
1.14553e-05
8.965e-08
1.14604e-05
9.01501e-08
1.14663e-05
8.88711e-08
8.70896e-08
1.14729e-05
1.20695e-05
2.87415e-08
1.20543e-05
1.32303e-08
1.20491e-05
-1.69229e-08
1.20463e-05
4.7942e-08
1.20308e-05
6.20103e-08
1.20206e-05
4.98886e-08
1.2015e-05
5.70505e-08
1.20079e-05
8.18234e-08
1.20008e-05
9.27203e-08
1.1995e-05
8.41128e-08
1.19922e-05
7.75318e-08
1.19916e-05
8.39429e-08
1.19912e-05
8.76262e-08
1.19913e-05
8.57115e-08
1.19928e-05
8.25968e-08
1.19972e-05
8.26555e-08
1.20025e-05
8.43575e-08
1.20081e-05
8.45239e-08
1.20142e-05
8.27863e-08
8.03348e-08
1.20209e-05
1.26457e-05
2.56772e-08
1.26303e-05
2.85796e-08
1.26234e-05
-1.00343e-08
1.26208e-05
5.05432e-08
1.2606e-05
7.68723e-08
1.25935e-05
6.22997e-08
1.25873e-05
6.33e-08
1.2581e-05
8.81533e-08
1.25736e-05
1.00109e-07
1.2567e-05
9.06804e-08
1.25638e-05
8.07187e-08
1.25634e-05
8.43167e-08
1.25635e-05
8.75345e-08
1.2564e-05
8.52901e-08
1.25656e-05
8.09194e-08
1.25698e-05
7.84995e-08
1.25755e-05
7.86265e-08
1.25816e-05
7.84012e-08
1.25881e-05
7.63706e-08
7.34333e-08
1.2595e-05
1.32494e-05
2.32067e-08
1.324e-05
3.79763e-08
1.32279e-05
2.03859e-09
1.32228e-05
5.57018e-08
1.32086e-05
9.10963e-08
1.31944e-05
7.64633e-08
1.31869e-05
7.0771e-08
1.31812e-05
9.38996e-08
1.31738e-05
1.07438e-07
1.31666e-05
9.79171e-08
1.31627e-05
8.4617e-08
1.31624e-05
8.46502e-08
1.3163e-05
8.69571e-08
1.31637e-05
8.45339e-08
1.31658e-05
7.88622e-08
1.31696e-05
7.46149e-08
1.31758e-05
7.25149e-08
1.31822e-05
7.19392e-08
1.31891e-05
6.94817e-08
6.62705e-08
1.31963e-05
1.38819e-05
2.14429e-08
1.38741e-05
4.57636e-08
1.38598e-05
1.63831e-08
1.38534e-05
6.21075e-08
1.384e-05
1.04451e-07
1.38245e-05
9.20363e-08
1.38153e-05
7.99542e-08
1.38097e-05
9.94349e-08
1.38027e-05
1.14463e-07
1.3795e-05
1.05612e-07
1.37903e-05
8.93463e-08
1.37897e-05
8.52707e-08
1.37906e-05
8.59832e-08
1.37919e-05
8.32837e-08
1.37943e-05
7.64775e-08
1.37981e-05
7.07571e-08
1.38045e-05
6.61118e-08
1.38111e-05
6.53954e-08
1.38186e-05
6.19651e-08
5.87263e-08
1.38261e-05
1.45446e-05
2.05499e-08
1.45318e-05
5.84723e-08
1.45198e-05
2.84273e-08
1.4514e-05
6.79165e-08
1.45016e-05
1.16808e-07
1.4485e-05
1.08634e-07
1.44739e-05
9.10773e-08
1.4468e-05
1.05311e-07
1.44615e-05
1.21029e-07
1.44536e-05
1.13533e-07
1.4448e-05
9.49067e-08
1.44468e-05
8.65081e-08
1.44479e-05
8.4801e-08
1.44497e-05
8.14978e-08
1.44524e-05
7.38437e-08
1.44566e-05
6.65398e-08
1.44629e-05
5.98176e-08
1.44698e-05
5.84581e-08
1.44777e-05
5.40398e-08
5.06244e-08
1.44858e-05
1.5239e-05
2.04143e-08
1.52302e-05
6.73308e-08
1.52136e-05
4.49964e-08
1.52057e-05
7.582e-08
1.51946e-05
1.27847e-07
1.51775e-05
1.25802e-07
1.51643e-05
1.04212e-07
1.51575e-05
1.12152e-07
1.51513e-05
1.27209e-07
1.51434e-05
1.21484e-07
1.51371e-05
1.0123e-07
1.5135e-05
8.86058e-08
1.51361e-05
8.36747e-08
1.51383e-05
7.92725e-08
1.51413e-05
7.08253e-08
1.5146e-05
6.18805e-08
1.51518e-05
5.3952e-08
1.51599e-05
5.04054e-08
1.51677e-05
4.62289e-08
4.17293e-08
1.51766e-05
1.59666e-05
2.11834e-08
1.59601e-05
7.38413e-08
1.59402e-05
6.48829e-08
1.59306e-05
8.54047e-08
1.59204e-05
1.38056e-07
1.59031e-05
1.43048e-07
1.5888e-05
1.19306e-07
1.58797e-05
1.20435e-07
1.58736e-05
1.33335e-07
1.58658e-05
1.29284e-07
1.58588e-05
1.08212e-07
1.58558e-05
9.16662e-08
1.58565e-05
8.29444e-08
1.5859e-05
7.67428e-08
1.58625e-05
6.73622e-08
1.58674e-05
5.70016e-08
1.58735e-05
4.78803e-08
1.58819e-05
4.19646e-08
1.58905e-05
3.7585e-08
3.27812e-08
1.58995e-05
1.67287e-05
2.30726e-08
1.6714e-05
8.85218e-08
1.67009e-05
7.79868e-08
1.66905e-05
9.58317e-08
1.66803e-05
1.48225e-07
1.66634e-05
1.59999e-07
1.66466e-05
1.36123e-07
1.66365e-05
1.30514e-07
1.66299e-05
1.39896e-07
1.66223e-05
1.36941e-07
1.66147e-05
1.15772e-07
1.66107e-05
9.56944e-08
1.66106e-05
8.29837e-08
1.66133e-05
7.41293e-08
1.66171e-05
6.35271e-08
1.66222e-05
5.19191e-08
1.66288e-05
4.12483e-08
1.66374e-05
3.34169e-08
1.66471e-05
2.7826e-08
2.37111e-08
1.66562e-05
1.75279e-05
2.55112e-08
1.75288e-05
8.76873e-08
1.75025e-05
1.04221e-07
1.74868e-05
1.11594e-07
1.74763e-05
1.5872e-07
1.74597e-05
1.76541e-07
1.74415e-05
1.54364e-07
1.74293e-05
1.42691e-07
1.74218e-05
1.47421e-07
1.74141e-05
1.44651e-07
1.7406e-05
1.2385e-07
1.7401e-05
1.00678e-07
1.73999e-05
8.40873e-08
1.74022e-05
7.17835e-08
1.74064e-05
5.9418e-08
1.74118e-05
4.64277e-08
1.7419e-05
3.40919e-08
1.74279e-05
2.45213e-08
1.74381e-05
1.76753e-08
1.3116e-08
1.74486e-05
1.83649e-05
2.89863e-08
1.83521e-05
1.00482e-07
1.83382e-05
1.18056e-07
1.83219e-05
1.27922e-07
1.831e-05
1.70612e-07
1.82938e-05
1.92784e-07
1.82744e-05
1.73697e-07
1.826e-05
1.57138e-07
1.8251e-05
1.56396e-07
1.82429e-05
1.52771e-07
1.82343e-05
1.32451e-07
1.82283e-05
1.06716e-07
1.82259e-05
8.64979e-08
1.82275e-05
7.01074e-08
1.82317e-05
5.52103e-08
1.82377e-05
4.04789e-08
1.82454e-05
2.63719e-08
1.82549e-05
1.50198e-08
1.82658e-05
6.79974e-09
1.28015e-09
1.82776e-05
1.92422e-05
3.31377e-08
1.9236e-05
1.0668e-07
1.92152e-05
1.38873e-07
1.91971e-05
1.46051e-07
1.91834e-05
1.84287e-07
1.91673e-05
2.08867e-07
1.91471e-05
1.93925e-07
1.91303e-05
1.73958e-07
1.91194e-05
1.6731e-07
1.91104e-05
1.61789e-07
1.91011e-05
1.41701e-07
1.90938e-05
1.14037e-07
1.90899e-05
9.04152e-08
1.90905e-05
6.95071e-08
1.90944e-05
5.12687e-08
1.91008e-05