/*--------------------------------*- C++ -*----------------------------------*\
| =========                 |                                                 |
| \\      /  F ield         | OpenFOAM: The Open Source CFD Toolbox           |
|  \\    /   O peration     | Version:  v2012                                 |
|   \\  /    A nd           | Website:  www.openfoam.com                      |
|    \\/     M anipulation  |                                                 |
\*---------------------------------------------------------------------------*/
FoamFile
{
    version     2.0;
    format      ascii;
    class       volVectorField;
    location    "3.85";
    object      U;
}
// * * * * * * * * * * * * * * * * * * * * * * * * * * * * * * * * * * * * * //

dimensions      [0 1 -1 0 0 0 0];


internalField   nonuniform List<vector> 
17600
(
(0.837492 0.00191116 0)
(1.15185 -0.0036735 0)
(0.853778 0.00534733 0)
(1.13702 -0.00686998 0)
(0.848976 0.00559582 0)
(1.13363 -0.00456466 0)
(0.84366 0.00107518 0)
(1.12821 0.000414723 0)
(0.8527 0.000302489 0)
(1.12348 0.00125923 0)
(0.86075 0.00196823 0)
(1.1191 0.00114174 0)
(0.864737 0.00250579 0)
(1.11333 0.00115743 0)
(0.864307 0.00274544 0)
(1.10822 0.00087031 0)
(0.858024 0.00292884 0)
(1.10402 0.000708817 0)
(0.84501 0.00372789 0)
(1.0995 0.00096104 0)
(0.847641 0.00189651 0)
(1.13888 -0.00359579 0)
(0.863252 0.00526531 0)
(1.1216 -0.0066163 0)
(0.858369 0.00543149 0)
(1.11563 -0.00427917 0)
(0.856141 0.000921669 0)
(1.10853 0.000570955 0)
(0.87094 0.000137812 0)
(1.10112 0.00136099 0)
(0.885565 0.00180951 0)
(1.091 0.00129553 0)
(0.898458 0.00238064 0)
(1.07569 0.00134949 0)
(0.911704 0.00271921 0)
(1.05533 0.00104578 0)
(0.926422 0.00323666 0)
(1.02689 0.000615006 0)
(0.945362 0.0051875 0)
(0.98437 0.000158537 0)
(0.867407 0.0019074 0)
(1.11598 -0.00352477 0)
(0.882125 0.00521177 0)
(1.09755 -0.00637747 0)
(0.878154 0.0052679 0)
(1.08805 -0.00404734 0)
(0.881921 0.000785006 0)
(1.0756 0.000571345 0)
(0.903458 3.63427e-05 0)
(1.06438 0.00133044 0)
(0.923766 0.00178047 0)
(1.05037 0.00125216 0)
(0.941954 0.00248455 0)
(1.03189 0.00124685 0)
(0.958395 0.00299846 0)
(1.01195 0.000877701 0)
(0.970811 0.00369827 0)
(0.991986 0.000490558 0)
(0.977012 0.00568142 0)
(0.974159 0.00118195 0)
(0.893798 0.00195614 0)
(1.08756 -0.00348133 0)
(0.907215 0.00520438 0)
(1.0704 -0.00620212 0)
(0.904962 0.00519531 0)
(1.05882 -0.0039508 0)
(0.914628 0.000783236 0)
(1.04158 0.000416911 0)
(0.93841 7.87524e-05 0)
(1.02987 0.00113773 0)
(0.957327 0.00189314 0)
(1.01889 0.00104485 0)
(0.971998 0.00270331 0)
(1.00676 0.00102815 0)
(0.981909 0.00329382 0)
(0.996712 0.000715595 0)
(0.985378 0.00402044 0)
(0.98845 0.000520638 0)
(0.982636 0.00589866 0)
(0.98081 0.00230161 0)
(0.922338 0.00203345 0)
(1.05902 -0.00346037 0)
(0.933658 0.00521615 0)
(1.04548 -0.00607723 0)
(0.932976 0.00518779 0)
(1.03462 -0.00395303 0)
(0.945341 0.000893368 0)
(1.01664 0.000202454 0)
(0.965675 0.000175174 0)
(1.00844 0.000927515 0)
(0.978498 0.00199707 0)
(1.00387 0.000864957 0)
(0.986939 0.00284007 0)
(0.999034 0.000899406 0)
(0.99118 0.00344093 0)
(0.995453 0.000677559 0)
(0.990785 0.00418466 0)
(0.991197 0.000648137 0)
(0.986724 0.00606276 0)
(0.984893 0.00331878 0)
(0.948491 0.00212245 0)
(1.0352 -0.00345156 0)
(0.95692 0.00522456 0)
(1.02657 -0.00598924 0)
(0.957035 0.00519741 0)
(1.0187 -0.0039972 0)
(0.968502 0.00103519 0)
(1.00357 1.16705e-05 0)
(0.982654 0.000249142 0)
(0.999725 0.00077988 0)
(0.98965 0.00203308 0)
(0.999922 0.000757627 0)
(0.993955 0.00288513 0)
(0.998926 0.00084123 0)
(0.995906 0.0034953 0)
(0.997642 0.000693274 0)
(0.994808 0.00427012 0)
(0.994374 0.000835651 0)
(0.990966 0.00618515 0)
(0.988702 0.00424333 0)
(0.969117 0.00220389 0)
(1.01863 -0.00344289 0)
(0.974434 0.00521546 0)
(1.01469 -0.00592513 0)
(0.974642 0.00519333 0)
(1.01039 -0.00404055 0)
(0.983334 0.00115448 0)
(0.999127 -0.000122171 0)
(0.991823 0.000287174 0)
(0.997964 0.000686082 0)
(0.995318 0.0020235 0)
(1.00016 0.000687519 0)
(0.99779 0.00288761 0)
(1.00052 0.000802583 0)
(0.999131 0.0035116 0)
(0.999986 0.000732192 0)
(0.998038 0.00429999 0)
(0.99725 0.00110045 0)
(0.994454 0.00622452 0)
(0.992298 0.00512495 0)
(0.983213 0.00226295 0)
(1.00902 -0.00342657 0)
(0.985959 0.00518381 0)
(1.00847 -0.00587337 0)
(0.985939 0.00516533 0)
(1.00698 -0.00406349 0)
(0.991801 0.00123855 0)
(0.998745 -0.000203855 0)
(0.996494 0.0003063 0)
(0.998466 0.000620688 0)
(0.9983 0.0019986 0)
(1.00105 0.00063123 0)
(1.00003 0.00287324 0)
(1.00181 0.000770886 0)
(1.00123 0.00350536 0)
(1.00165 0.000793809 0)
(1.00024 0.00428013 0)
(0.999361 0.00143434 0)
(0.996973 0.00618669 0)
(0.995069 0.00595779 0)
(0.991627 0.0022945 0)
(1.00437 -0.00340164 0)
(0.992778 0.00513334 0)
(1.00564 -0.00582581 0)
(0.992474 0.00511601 0)
(1.00589 -0.00406286 0)
(0.996306 0.00129481 0)
(0.999503 -0.000248922 0)
(0.998923 0.000322162 0)
(0.999225 0.000571395 0)
(0.999907 0.00197266 0)
(1.00165 0.000584306 0)
(1.00125 0.00284885 0)
(1.00252 0.000749965 0)
(1.00239 0.00347553 0)
(1.00259 0.000883029 0)
(1.00154 0.00421349 0)
(1.00067 0.00181831 0)
(0.998631 0.00609932 0)
(0.996971 0.0067172 0)
(0.996096 0.00230249 0)
(1.00239 -0.00337134 0)
(0.996575 0.00507154 0)
(1.00435 -0.00577711 0)
(0.996001 0.00505119 0)
(1.00552 -0.00404214 0)
(0.998632 0.00133152 0)
(1.00026 -0.000270072 0)
(1.00031 0.000338527 0)
(0.999837 0.000535225 0)
(1.00084 0.00194768 0)
(1.00203 0.000547902 0)
(1.00191 0.00281442 0)
(1.00288 0.000744958 0)
(1.00299 0.00341717 0)
(1.00309 0.00100444 0)
(1.00226 0.00410377 0)
(1.00145 0.00223408 0)
(0.999706 0.00599281 0)
(0.998265 0.00737719 0)
(0.998297 0.00229489 0)
(1.00152 -0.00333923 0)
(0.998695 0.00500438 0)
(1.00356 -0.00572367 0)
(0.997865 0.00497452 0)
(1.00525 -0.00400533 0)
(0.999841 0.00135177 0)
(1.0008 -0.000276008 0)
(1.00121 0.000351419 0)
(1.00036 0.000511291 0)
(1.00152 0.00191964 0)
(1.00238 0.000524386 0)
(1.00238 0.00276675 0)
(1.00317 0.000760386 0)
(1.00337 0.00332719 0)
(1.00342 0.00115955 0)
(1.00272 0.00395937 0)
(1.00197 0.00266288 0)
(1.00048 0.00589966 0)
(0.99922 0.00791876 0)
(0.999376 0.00227883 0)
(1.00103 -0.00330728 0)
(0.999942 0.00493463 0)
(1.00293 -0.00566317 0)
(0.998887 0.00488702 0)
(1.00492 -0.00395468 0)
(1.00049 0.00135498 0)
(1.00114 -0.000272341 0)
(1.00187 0.000355484 0)
(1.00086 0.000498113 0)
(1.00211 0.00188318 0)
(1.00279 0.000516581 0)
(1.00282 0.00270158 0)
(1.00349 0.00080013 0)
(1.00371 0.00320665 0)
(1.00373 0.00134456 0)
(1.0031 0.00379626 0)
(1.0024 0.00308218 0)
(1.00111 0.00584941 0)
(0.999999 0.00833594 0)
(0.99994 0.00225863 0)
(1.00069 -0.00327591 0)
(1.00071 0.00486259 0)
(1.00242 -0.00559447 0)
(0.999487 0.00478853 0)
(1.00459 -0.00389073 0)
(1.00086 0.00133934 0)
(1.00137 -0.000260804 0)
(1.00236 0.000345905 0)
(1.00132 0.000494811 0)
(1.00264 0.00183388 0)
(1.00322 0.000526168 0)
(1.00325 0.00261592 0)
(1.00385 0.000866004 0)
(1.00406 0.00306056 0)
(1.00404 0.00155085 0)
(1.00346 0.00363724 0)
(1.00278 0.00346878 0)
(1.00166 0.00585987 0)
(1.00067 0.00863858 0)
(1.00025 0.00223613 0)
(1.00046 -0.00324457 0)
(1.00119 0.00478738 0)
(1.00205 -0.00551714 0)
(0.999855 0.0046789 0)
(1.00431 -0.00381345 0)
(1.00107 0.00130417 0)
(1.00151 -0.000240888 0)
(1.00271 0.000319691 0)
(1.00169 0.000501995 0)
(1.00306 0.00176835 0)
(1.0036 0.000552862 0)
(1.00363 0.00250961 0)
(1.00417 0.000955396 0)
(1.00437 0.0028976 0)
(1.00431 0.00176546 0)
(1.00377 0.0035064 0)
(1.00311 0.00380609 0)
(1.00214 0.0059326 0)
(1.00124 0.00884859 0)
(1.00043 0.00221185 0)
(1.00033 -0.00321236 0)
(1.00146 0.00470777 0)
(1.00182 -0.00543103 0)
(1.00008 0.00455804 0)
(1.00409 -0.0037225 0)
(1.00121 0.00124992 0)
(1.00159 -0.000210774 0)
(1.00294 0.000274968 0)
(1.00197 0.000521798 0)
(1.00337 0.00168373 0)
(1.0039 0.000596446 0)
(1.00393 0.00238376 0)
(1.00443 0.00106247 0)
(1.00462 0.00272859 0)
(1.00452 0.00197362 0)
(1.00404 0.00342012 0)
(1.00339 0.00409178 0)
(1.00255 0.0060571 0)
(1.00174 0.00899302 0)
(1.00052 0.00218577 0)
(1.00026 -0.00317829 0)
(1.0016 0.00462252 0)
(1.00169 -0.00533582 0)
(1.00022 0.00442524 0)
(1.00394 -0.00361697 0)
(1.00131 0.00117623 0)
(1.00162 -0.000166998 0)
(1.00309 0.000209467 0)
(1.00215 0.000556714 0)
(1.00357 0.00157852 0)
(1.0041 0.000656466 0)
(1.00413 0.0022409 0)
(1.0046 0.00117902 0)
(1.00481 0.00256676 0)
(1.00468 0.00216048 0)
(1.00425 0.00338316 0)
(1.00362 0.00433455 0)
(1.00291 0.00621545 0)
(1.00217 0.00909624 0)
(1.00057 0.00215776 0)
(1.00023 -0.00314147 0)
(1.00167 0.00453063 0)
(1.00162 -0.00523107 0)
(1.0003 0.00427969 0)
(1.00383 -0.00349675 0)
(1.0014 0.00108348 0)
(1.00163 -0.000107714 0)
(1.00319 0.000122444 0)
(1.00227 0.000607671 0)
(1.0037 0.00145374 0)
(1.00423 0.000728797 0)
(1.00427 0.00208791 0)
(1.00471 0.00129323 0)
(1.00494 0.0024286 0)
(1.00479 0.00231443 0)
(1.00443 0.00339158 0)
(1.00382 0.0045438 0)
(1.00323 0.00638584 0)
(1.00257 0.00917165 0)
(1.00059 0.00212768 0)
(1.00023 -0.00310121 0)
(1.00169 0.00443148 0)
(1.00158 -0.00511613 0)
(1.00037 0.00412039 0)
(1.00374 -0.00336124 0)
(1.00149 0.000970941 0)
(1.00161 -3.03845e-05 0)
(1.00326 1.37733e-05 0)
(1.00235 0.000673273 0)
(1.00378 0.00131332 0)
(1.0043 0.000806517 0)
(1.00436 0.0019348 0)
(1.00477 0.00139054 0)
(1.00504 0.00232716 0)
(1.00488 0.00243536 0)
(1.00458 0.00343766 0)
(1.00401 0.00473097 0)
(1.00353 0.00655325 0)
(1.00294 0.0092235 0)
(1.00061 0.00209534 0)
(1.00023 -0.00305678 0)
(1.00169 0.00432401 0)
(1.00155 -0.00498989 0)
(1.00042 0.00394605 0)
(1.00367 -0.00320852 0)
(1.00158 0.000836496 0)
(1.00159 6.70078e-05 0)
(1.00332 -0.00011408 0)
(1.0024 0.000750803 0)
(1.00383 0.0011628 0)
(1.00435 0.000880636 0)
(1.00443 0.00179343 0)
(1.00482 0.00145679 0)
(1.00513 0.00226388 0)
(1.00495 0.00253294 0)
(1.00473 0.00351041 0)
(1.0042 0.00491057 0)
(1.00382 0.00671673 0)
(1.00329 0.00925728 0)
(1.00062 0.00206057 0)
(1.00024 -0.00300737 0)
(1.00168 0.00420672 0)
(1.00153 -0.00485128 0)
(1.00047 0.00375505 0)
(1.00359 -0.00303736 0)
(1.00168 0.000680464 0)
(1.00156 0.000180977 0)
(1.00338 -0.000256101 0)
(1.00245 0.000837387 0)
(1.00388 0.00101076 0)
(1.00439 0.000940262 0)
(1.00449 0.00167648 0)
(1.00485 0.00148333 0)
(1.0052 0.00222637 0)
(1.00502 0.00261751 0)
(1.00488 0.00359371 0)
(1.00439 0.0050903 0)
(1.0041 0.00688404 0)
(1.00363 0.0092845 0)
(1.00063 0.00202327 0)
(1.00025 -0.00295223 0)
(1.00166 0.00407818 0)
(1.00151 -0.00469896 0)
(1.00052 0.00354448 0)
(1.00352 -0.00284628 0)
(1.00178 0.000501493 0)
(1.00154 0.000311976 0)
(1.00343 -0.000414087 0)
(1.00249 0.000924782 0)
(1.00391 0.000867387 0)
(1.00442 0.000973775 0)
(1.00453 0.00159377 0)
(1.00488 0.00147588 0)
(1.00527 0.00220112 0)
(1.00509 0.00270049 0)
(1.00504 0.00367722 0)
(1.00459 0.00526717 0)
(1.00439 0.00706297 0)
(1.00397 0.0093205 0)
(1.00063 0.00198333 0)
(1.00027 -0.00289045 0)
(1.00164 0.00393744 0)
(1.0015 -0.00453249 0)
(1.00058 0.00331488 0)
(1.00345 -0.00263819 0)
(1.00189 0.000301951 0)
(1.00151 0.00045761 0)
(1.00348 -0.000582037 0)
(1.00254 0.00100395 0)
(1.00394 0.000744433 0)
(1.00445 0.000969081 0)
(1.00457 0.00154406 0)
(1.00491 0.00144852 0)
(1.00535 0.00217778 0)
(1.00517 0.00278895 0)
(1.0052 0.00375976 0)
(1.00481 0.00543174 0)
(1.00467 0.00725114 0)
(1.0043 0.00937736 0)
(1.00062 0.0019405 0)
(1.00029 -0.00282024 0)
(1.00162 0.00378306 0)
(1.00149 -0.00435025 0)
(1.00063 0.00306614 0)
(1.00339 -0.00241238 0)
(1.00199 8.56174e-05 0)
(1.00149 0.000608747 0)
(1.00353 -0.000747 0)
(1.00259 0.0010675 0)
(1.00396 0.000649052 0)
(1.00449 0.000923402 0)
(1.00461 0.00151387 0)
(1.00494 0.00141535 0)
(1.00544 0.00214184 0)
(1.00526 0.0028795 0)
(1.00537 0.00383567 0)
(1.00504 0.00557588 0)
(1.00496 0.00743483 0)
(1.00463 0.00946368 0)
(1.00061 0.00189317 0)
(1.00033 -0.00273835 0)
(1.00159 0.00361027 0)
(1.00148 -0.00414735 0)
(1.00068 0.00279164 0)
(1.00332 -0.0021648 0)
(1.00209 -0.00014382 0)
(1.00148 0.000762752 0)
(1.00357 -0.000903434 0)
(1.00265 0.00110229 0)
(1.00397 0.000586482 0)
(1.00454 0.000838542 0)
(1.00464 0.00149227 0)
(1.00498 0.0013814 0)
(1.00553 0.00208713 0)
(1.00537 0.00296198 0)
(1.00555 0.00389863 0)
(1.00529 0.00568749 0)
(1.00525 0.00759881 0)
(1.00496 0.00958992 0)
(1.00058 0.00184408 0)
(1.00037 -0.00264884 0)
(1.00155 0.00342282 0)
(1.00148 -0.00393324 0)
(1.00072 0.00250475 0)
(1.00327 -0.00191426 0)
(1.00219 -0.000374766 0)
(1.00147 0.000904003 0)
(1.0036 -0.00102543 0)
(1.00272 0.00107274 0)
(1.00397 0.000583127 0)
(1.0046 0.000699974 0)
(1.00468 0.00149078 0)
(1.00502 0.00132787 0)
(1.00562 0.00202663 0)
(1.00549 0.0030084 0)
(1.00574 0.0039486 0)
(1.00557 0.00568982 0)
(1.00556 0.00771338 0)
(1.00528 0.00973679 0)
(1.00054 0.00179093 0)
(1.00042 -0.0025461 0)
(1.0015 0.00321626 0)
(1.00148 -0.00370426 0)
(1.00075 0.00220131 0)
(1.00321 -0.00165463 0)
(1.00228 -0.000610095 0)
(1.00147 0.00103065 0)
(1.00361 -0.00111376 0)
(1.00281 0.000991777 0)
(1.00396 0.000612804 0)
(1.00466 0.000546713 0)
(1.00471 0.00148448 0)
(1.00506 0.00129198 0)
(1.00572 0.00194024 0)
(1.00562 0.00302771 0)
(1.00592 0.00396723 0)
(1.00587 0.00560228 0)
(1.0059 0.0076796 0)
(1.00563 0.00972223 0)
(1.0005 0.00173299 0)
(1.00048 -0.00242782 0)
(1.00144 0.0029876 0)
(1.00149 -0.0034558 0)
(1.00079 0.00187579 0)
(1.00317 -0.0013878 0)
(1.00236 -0.000838333 0)
(1.00148 0.00112982 0)
(1.00361 -0.00116922 0)
(1.0029 0.000889455 0)
(1.00393 0.000645537 0)
(1.00472 0.000412833 0)
(1.00474 0.00145032 0)
(1.0051 0.00131225 0)
(1.00582 0.00184167 0)
(1.00577 0.00304533 0)
(1.0061 0.00404635 0)
(1.00617 0.00558103 0)
(1.00626 0.00765128 0)
(1.00601 0.00974961 0)
(1.00044 0.00167351 0)
(1.00054 -0.00230011 0)
(1.00138 0.00275022 0)
(1.0015 -0.00320544 0)
(1.00082 0.00155672 0)
(1.00312 -0.00114723 0)
(1.00243 -0.00103208 0)
(1.0015 0.00117548 0)
(1.0036 -0.00116934 0)
(1.00301 0.000748688 0)
(1.0039 0.000709323 0)
(1.00479 0.000274492 0)
(1.00479 0.00139877 0)
(1.00514 0.00137434 0)
(1.00593 0.00181297 0)
(1.00595 0.00310641 0)
(1.00628 0.00424086 0)
(1.00648 0.00566338 0)
(1.00662 0.00768215 0)
(1.00641 0.00979014 0)
(1.00038 0.00160824 0)
(1.0006 -0.00215499 0)
(1.00131 0.00249599 0)
(1.00151 -0.0029464 0)
(1.00085 0.00123687 0)
(1.00308 -0.000923302 0)
(1.0025 -0.00119841 0)
(1.00153 0.00118819 0)
(1.00358 -0.00113796 0)
(1.00313 0.000585166 0)
(1.00387 0.000793986 0)
(1.00485 0.000173055 0)
(1.00484 0.00133713 0)
(1.00518 0.00150269 0)
(1.00604 0.00185737 0)
(1.00615 0.00320492 0)
(1.00647 0.00445486 0)
(1.00678 0.00580671 0)
(1.007 0.00771414 0)
(1.00682 0.0098044 0)
(1.00032 0.00154163 0)
(1.00065 -0.00200072 0)
(1.00125 0.00223297 0)
(1.00151 -0.00269479 0)
(1.00088 0.000929421 0)
(1.00303 -0.000729434 0)
(1.00257 -0.00133349 0)
(1.00156 0.00116947 0)
(1.00355 -0.00107745 0)
(1.00325 0.000413734 0)
(1.00384 0.000885617 0)
(1.0049 0.000158729 0)
(1.00491 0.00130792 0)
(1.00523 0.00170488 0)
(1.00614 0.00195615 0)
(1.00637 0.00328894 0)
(1.00668 0.00464439 0)
(1.00708 0.00595622 0)
(1.00738 0.00772102 0)
(1.00724 0.00974647 0)
(1.00027 0.00147104 0)
(1.0007 -0.00183691 0)
(1.00119 0.00196805 0)
(1.0015 -0.00246306 0)
(1.00091 0.000649855 0)
(1.00298 -0.000577117 0)
(1.00263 -0.00143194 0)
(1.0016 0.00111761 0)
(1.00351 -0.000981363 0)
(1.00337 0.000246158 0)
(1.00382 0.000994299 0)
(1.00495 0.000227256 0)
(1.005 0.0013046 0)
(1.00529 0.00193335 0)
(1.00624 0.00210471 0)
(1.00659 0.00334201 0)
(1.0069 0.00478249 0)
(1.00737 0.00608139 0)
(1.00775 0.00770722 0)
(1.00766 0.00962548 0)
(1.00022 0.00139944 0)
(1.00073 -0.00166956 0)
(1.00114 0.00170617 0)
(1.00149 -0.0022525 0)
(1.00095 0.00038802 0)
(1.00293 -0.000452943 0)
(1.00269 -0.00150931 0)
(1.00163 0.00105762 0)
(1.00346 -0.000852672 0)
(1.00349 0.000116581 0)
(1.00381 0.00111964 0)
(1.00498 0.000345538 0)
(1.00511 0.00128275 0)
(1.00536 0.00212871 0)
(1.00633 0.00227482 0)
(1.00682 0.00337321 0)
(1.00714 0.00485415 0)
(1.00766 0.0061696 0)
(1.00811 0.00767032 0)
(1.00807 0.00945778 0)
(1.00018 0.00132866 0)
(1.00075 -0.00150829 0)
(1.00109 0.00146607 0)
(1.00147 -0.0020794 0)
(1.001 0.000149333 0)
(1.00288 -0.000361712 0)
(1.00275 -0.00156684 0)
(1.00168 0.000990736 0)
(1.00342 -0.000669632 0)
(1.00361 4.58892e-05 0)
(1.00382 0.00125558 0)
(1.005 0.000504857 0)
(1.00522 0.00124644 0)
(1.00544 0.00226648 0)
(1.00642 0.00245097 0)
(1.00705 0.0033972 0)
(1.0074 0.00486947 0)
(1.00794 0.00621215 0)
(1.00846 0.00760498 0)
(1.00848 0.00925247 0)
(1.00014 0.0012555 0)
(1.00076 -0.00134688 0)
(1.00105 0.00124794 0)
(1.00143 -0.00193795 0)
(1.00105 -7.60314e-05 0)
(1.00282 -0.000294431 0)
(1.00281 -0.00160026 0)
(1.00173 0.00091614 0)
(1.00337 -0.000433633 0)
(1.00373 1.38974e-05 0)
(1.00384 0.00137194 0)
(1.005 0.000705392 0)
(1.00534 0.00122171 0)
(1.00554 0.00234892 0)
(1.00649 0.00262819 0)
(1.00726 0.00343212 0)
(1.00767 0.00485684 0)
(1.00823 0.0062206 0)
(1.00879 0.00752725 0)
(1.00887 0.00903549 0)
(1.00011 0.0011848 0)
(1.00076 -0.00119914 0)
(1.00101 0.00106123 0)
(1.0014 -0.00181494 0)
(1.0011 -0.000297086 0)
(1.00277 -0.000241899 0)
(1.00287 -0.00160287 0)
(1.00179 0.000861922 0)
(1.00332 -0.000163439 0)
(1.00384 1.20085e-06 0)
(1.00388 0.00143273 0)
(1.00498 0.000916372 0)
(1.00545 0.00121626 0)
(1.00565 0.00237716 0)
(1.00658 0.00279097 0)
(1.00745 0.0034841 0)
(1.00795 0.00483248 0)
(1.00852 0.00620659 0)
(1.00911 0.00744768 0)
(1.00924 0.00882203 0)
(1.00009 0.00111791 0)
(1.00075 -0.00107113 0)
(1.00097 0.00091181 0)
(1.00135 -0.00170916 0)
(1.00116 -0.000490538 0)
(1.00271 -0.000197712 0)
(1.00293 -0.00155136 0)
(1.00187 0.000828162 0)
(1.00327 0.000112305 0)
(1.00393 1.37449e-05 0)
(1.00393 0.00144635 0)
(1.00496 0.00111824 0)
(1.00555 0.00124154 0)
(1.00578 0.00236812 0)
(1.00667 0.00292988 0)
(1.00764 0.00355095 0)
(1.00823 0.00480292 0)
(1.00881 0.00617182 0)
(1.00942 0.00736223 0)
(1.0096 0.00861003 0)
(1.00006 0.00105073 0)
(1.00074 -0.000956197 0)
(1.00093 0.000788161 0)
(1.0013 -0.00159962 0)
(1.00122 -0.000663346 0)
(1.00267 -0.000141408 0)
(1.00298 -0.00144407 0)
(1.00196 0.000776769 0)
(1.00322 0.000365449 0)
(1.00401 5.33088e-05 0)
(1.004 0.00142031 0)
(1.00493 0.00130319 0)
(1.00563 0.00130145 0)
(1.00592 0.00234787 0)
(1.00677 0.00304095 0)
(1.00782 0.00362927 0)
(1.0085 0.00477113 0)
(1.00911 0.00611314 0)
(1.00973 0.00726167 0)
(1.00993 0.00839411 0)
(1.00004 0.000987738 0)
(1.00073 -0.000866788 0)
(1.00089 0.000687474 0)
(1.00124 -0.00146398 0)
(1.00128 -0.000818806 0)
(1.00264 -7.93329e-05 0)
(1.00303 -0.00130339 0)
(1.00206 0.000700323 0)
(1.00317 0.0005856 0)
(1.00407 0.000123829 0)
(1.00409 0.00136424 0)
(1.00492 0.00146538 0)
(1.0057 0.00139108 0)
(1.00607 0.00233205 0)
(1.00688 0.00311893 0)
(1.00798 0.00370961 0)
(1.00878 0.00473691 0)
(1.00941 0.00602791 0)
(1.01002 0.00714136 0)
(1.01024 0.00817553 0)
(1.00003 0.000928499 0)
(1.00071 -0.000802084 0)
(1.00086 0.000602039 0)
(1.00118 -0.00129703 0)
(1.00134 -0.000934067 0)
(1.00262 -3.0996e-05 0)
(1.00308 -0.00113865 0)
(1.00217 0.00061816 0)
(1.00313 0.000768173 0)
(1.00412 0.000229227 0)
(1.00418 0.00130199 0)
(1.00491 0.00160261 0)
(1.00576 0.00150903 0)
(1.00621 0.00233021 0)
(1.00701 0.00316703 0)
(1.00814 0.00378 0)
(1.00904 0.0046993 0)
(1.00971 0.00591745 0)
(1.01031 0.00700006 0)
(1.01053 0.00795582 0)
(1.00001 0.000871482 0)
(1.00069 -0.000755103 0)
(1.00083 0.000521831 0)
(1.00111 -0.00110002 0)
(1.0014 -0.00100793 0)
(1.00261 -3.56082e-06 0)
(1.00312 -0.000955671 0)
(1.00229 0.000545863 0)
(1.0031 0.000913672 0)
(1.00415 0.000368796 0)
(1.00428 0.00125498 0)
(1.00492 0.00170943 0)
(1.00581 0.00164596 0)
(1.00636 0.00234436 0)
(1.00715 0.00319072 0)
(1.0083 0.00382735 0)
(1.00929 0.00465218 0)
(1.01001 0.00578289 0)
(1.01059 0.0068343 0)
(1.01081 0.00773095 0)
(0.999993 0.000815831 0)
(1.00068 -0.000718003 0)
(1.00081 0.000439232 0)
(1.00104 -0.000887872 0)
(1.00146 -0.00103492 0)
(1.00262 1.8266e-05 0)
(1.00316 -0.000754446 0)
(1.00241 0.000495304 0)
(1.00309 0.00102444 0)
(1.00416 0.000532531 0)
(1.00438 0.00123303 0)
(1.00494 0.00178243 0)
(1.00585 0.0017831 0)
(1.0065 0.00237302 0)
(1.0073 0.00319806 0)
(1.00846 0.00384998 0)
(1.00952 0.0045949 0)
(1.01031 0.00563053 0)
(1.01088 0.00664488 0)
(1.01107 0.00749809 0)
(0.99998 0.000761355 0)
(1.00067 -0.000687631 0)
(1.0008 0.000342959 0)
(1.00098 -0.000672647 0)
(1.00151 -0.00100535 0)
(1.00265 4.54273e-05 0)
(1.0032 -0.000538313 0)
(1.00253 0.000470157 0)
(1.0031 0.00109896 0)
(1.00417 0.000698632 0)
(1.00447 0.00123466 0)
(1.00498 0.0018255 0)
(1.00589 0.00190137 0)
(1.00664 0.00241018 0)
(1.00746 0.00319699 0)
(1.00862 0.00385638 0)
(1.00975 0.00453367 0)
(1.0106 0.00546827 0)
(1.01117 0.00643361 0)
(1.01132 0.00725225 0)
(0.999969 0.00070552 0)
(1.00065 -0.000652926 0)
(1.00081 0.000220706 0)
(1.00093 -0.000466742 0)
(1.00156 -0.00091631 0)
(1.00269 8.03e-05 0)
(1.00324 -0.000312011 0)
(1.00265 0.000477261 0)
(1.00312 0.00114557 0)
(1.00418 0.000854623 0)
(1.00457 0.00125847 0)
(1.00504 0.00185203 0)
(1.00594 0.00199406 0)
(1.00677 0.00244465 0)
(1.00762 0.00318808 0)
(1.00878 0.00385001 0)
(1.00996 0.00446986 0)
(1.01088 0.00529781 0)
(1.01146 0.00619756 0)
(1.01158 0.00698309 0)
(0.99996 0.000648619 0)
(1.00064 -0.000615953 0)
(1.00083 7.37504e-05 0)
(1.00089 -0.000274245 0)
(1.00161 -0.000765235 0)
(1.00275 0.000123168 0)
(1.00328 -8.81341e-05 0)
(1.00276 0.000526869 0)
(1.00316 0.00118169 0)
(1.00419 0.00100184 0)
(1.00465 0.0013089 0)
(1.00511 0.00188011 0)
(1.006 0.0020705 0)
(1.00689 0.00247176 0)
(1.00779 0.00316967 0)
(1.00894 0.00382917 0)
(1.01016 0.00440106 0)
(1.01114 0.00512089 0)
(1.01175 0.00593711 0)
(1.01183 0.00668355 0)
(0.999953 0.00059109 0)
(1.00062 -0.000578533 0)
(1.00086 -9.06842e-05 0)
(1.00087 -6.75789e-05 0)
(1.00165 -0.000551146 0)
(1.00281 0.000184959 0)
(1.00333 0.000126128 0)
(1.00287 0.000614872 0)
(1.00321 0.0012133 0)
(1.00421 0.00112972 0)
(1.00474 0.00137663 0)
(1.00519 0.00191437 0)
(1.00606 0.00213928 0)
(1.00702 0.00249584 0)
(1.00796 0.00314398 0)
(1.0091 0.00379612 0)
(1.01034 0.0043323 0)
(1.01138 0.0049528 0)
(1.01202 0.00567295 0)
(1.01208 0.00636935 0)
(0.999948 0.000543961 0)
(1.0006 -0.000544061 0)
(1.00092 -0.000228871 0)
(1.00088 0.000121968 0)
(1.00169 -0.000309611 0)
(1.00289 0.00025946 0)
(1.00339 0.000329553 0)
(1.00298 0.000741466 0)
(1.00327 0.00125929 0)
(1.00424 0.00124351 0)
(1.00482 0.00145395 0)
(1.00527 0.00195486 0)
(1.00612 0.00220071 0)
(1.00714 0.00251405 0)
(1.00814 0.00310078 0)
(1.00928 0.00373704 0)
(1.01052 0.00424876 0)
(1.01161 0.0047863 0)
(1.01228 0.00540619 0)
(1.01233 0.00603972 0)
(0.999945 0.000507246 0)
(1.00058 -0.000468382 0)
(1.00099 -0.000303341 0)
(1.00091 0.000258911 0)
(1.00173 -8.34371e-05 0)
(1.00296 0.000313732 0)
(1.00346 0.000493952 0)
(1.00308 0.000877391 0)
(1.00333 0.00131134 0)
(1.00428 0.00133457 0)
(1.00491 0.00152406 0)
(1.00537 0.00199433 0)
(1.00619 0.00225571 0)
(1.00726 0.00252813 0)
(1.00832 0.00304286 0)
(1.00946 0.00365263 0)
(1.01069 0.00414717 0)
(1.01181 0.00461939 0)
(1.01252 0.00514127 0)
(1.01258 0.00569893 0)
(0.999945 0.000414737 0)
(1.00055 -0.000278551 0)
(1.00105 -0.000318211 0)
(1.00097 0.000340233 0)
(1.00176 9.11842e-05 0)
(1.00303 0.000335897 0)
(1.00354 0.000608508 0)
(1.00318 0.00101406 0)
(1.00339 0.00137973 0)
(1.00432 0.00141276 0)
(1.005 0.00158337 0)
(1.00546 0.00202403 0)
(1.00626 0.00229444 0)
(1.00737 0.00252529 0)
(1.00849 0.00295994 0)
(1.00964 0.00353097 0)
(1.01085 0.00401215 0)
(1.01198 0.00443708 0)
(1.01273 0.00487212 0)
(1.0128 0.00534801 0)
(0.999949 0.000383862 0)
(1.00053 -0.000191893 0)
(1.00111 -0.000316506 0)
(1.00102 0.000446596 0)
(1.00179 0.000325781 0)
(1.00311 0.000420716 0)
(1.00363 0.000725061 0)
(1.00327 0.00117489 0)
(1.00344 0.00149125 0)
(1.00435 0.00150487 0)
(1.00507 0.00165147 0)
(1.00555 0.00206505 0)
(1.00632 0.00234068 0)
(1.00745 0.00253267 0)
(1.00863 0.00288191 0)
(1.00981 0.0033995 0)
(1.01101 0.00386418 0)
(1.01213 0.00425513 0)
(1.01291 0.00461714 0)
(1.01299 0.00501036 0)
(0.999952 0.000370999 0)
(1.0005 -0.000126923 0)
(1.00118 -0.000295192 0)
(1.00111 0.000556323 0)
(1.00182 0.000579091 0)
(1.00316 0.000537647 0)
(1.00373 0.000819176 0)
(1.00338 0.00132413 0)
(1.00349 0.00162831 0)
(1.00438 0.00160989 0)
(1.00515 0.00172151 0)
(1.00565 0.00211203 0)
(1.00639 0.00238954 0)
(1.00752 0.00254947 0)
(1.00877 0.00280744 0)
(1.00998 0.00325332 0)
(1.01117 0.00369092 0)
(1.01228 0.00405605 0)
(1.01306 0.00436014 0)
(1.01316 0.00467612 0)
(0.999959 0.000301932 0)
(1.00047 6.43937e-05 0)
(1.00125 -0.000243228 0)
(1.00121 0.000602088 0)
(1.00184 0.000785181 0)
(1.00321 0.000666814 0)
(1.00384 0.00089235 0)
(1.00349 0.00144588 0)
(1.00354 0.00176605 0)
(1.0044 0.0017197 0)
(1.00522 0.00176961 0)
(1.00575 0.00213223 0)
(1.00645 0.00241009 0)
(1.00757 0.00254982 0)
(1.00887 0.0027191 0)
(1.01013 0.00307782 0)
(1.01132 0.00347547 0)
(1.01241 0.00382067 0)
(1.01318 0.00408515 0)
(1.01329 0.00433736 0)
(0.999966 0.000265817 0)
(1.00044 0.000240593 0)
(1.00129 -0.000162394 0)
(1.00131 0.000642732 0)
(1.00187 0.00100155 0)
(1.00324 0.000850126 0)
(1.00394 0.000983328 0)
(1.00361 0.00155652 0)
(1.00359 0.00190688 0)
(1.0044 0.00185032 0)
(1.00528 0.00182046 0)
(1.00584 0.00213775 0)
(1.00651 0.00242144 0)
(1.0076 0.00255154 0)
(1.00894 0.00264367 0)
(1.01026 0.00290062 0)
(1.01146 0.00323657 0)
(1.01253 0.00355604 0)
(1.01328 0.00379226 0)
(1.01339 0.00399365 0)
(0.999975 0.000233222 0)
(1.0004 0.000379251 0)
(1.00132 -4.31726e-05 0)
(1.00142 0.00068885 0)
(1.00191 0.00119901 0)
(1.00325 0.00105109 0)
(1.00403 0.00108807 0)
(1.00373 0.00166081 0)
(1.00363 0.00206011 0)
(1.00438 0.00200913 0)
(1.00531 0.00189725 0)
(1.00592 0.00213501 0)
(1.00656 0.00241884 0)
(1.00761 0.00254735 0)
(1.00897 0.00257754 0)
(1.01034 0.00272585 0)
(1.01158 0.00297689 0)
(1.01263 0.00325597 0)
(1.01336 0.00346823 0)
(1.01345 0.00363258 0)
(0.999984 0.000232336 0)
(1.00037 0.000452651 0)
(1.00134 0.00010032 0)
(1.00154 0.000756772 0)
(1.00196 0.00140558 0)
(1.00324 0.00129358 0)
(1.0041 0.00123039 0)
(1.00386 0.00175865 0)
(1.00368 0.00221062 0)
(1.00435 0.00217699 0)
(1.00531 0.00199591 0)
(1.00598 0.00213144 0)
(1.00662 0.00239595 0)
(1.00761 0.00253354 0)
(1.00896 0.00252434 0)
(1.01038 0.00257167 0)
(1.01166 0.00272474 0)
(1.01272 0.0029412 0)
(1.01342 0.00312254 0)
(1.01349 0.00325734 0)
(0.999993 0.000213439 0)
(1.00034 0.000565971 0)
(1.00136 0.000269329 0)
(1.00165 0.000825804 0)
(1.00201 0.00158892 0)
(1.00322 0.00155504 0)
(1.00415 0.00141251 0)
(1.00398 0.00185974 0)
(1.00374 0.00236 0)
(1.0043 0.00236183 0)
(1.00527 0.0021273 0)
(1.00603 0.00214709 0)
(1.00667 0.00235684 0)
(1.0076 0.00249077 0)
(1.00892 0.00245853 0)
(1.01037 0.00241715 0)
(1.0117 0.00246727 0)
(1.01277 0.00259843 0)
(1.01347 0.00273299 0)
(1.01351 0.00283738 0)
(1 0.000193954 0)
(1.00031 0.000696715 0)
(1.00135 0.000442528 0)
(1.00176 0.000908272 0)
(1.00208 0.0017494 0)
(1.0032 0.00183345 0)
(1.00417 0.0016338 0)
(1.0041 0.00197811 0)
(1.0038 0.00248881 0)
(1.00424 0.0025511 0)
(1.0052 0.00227646 0)
(1.00602 0.00218303 0)
(1.0067 0.00230225 0)
(1.00758 0.00241451 0)
(1.00885 0.00236494 0)
(1.0103 0.00226056 0)
(1.01167 0.00220922 0)
(1.01278 0.00224893 0)
(1.01348 0.00231988 0)
(1.0135 0.00238747 0)
(1.00001 0.000215774 0)
(1.00028 0.000783502 0)
(1.00133 0.000640407 0)
(1.00187 0.00102583 0)
(1.00217 0.00188844 0)
(1.00316 0.00209465 0)
(1.00416 0.0018609 0)
(1.00419 0.00209965 0)
(1.00387 0.00258576 0)
(1.00418 0.00272334 0)
(1.00509 0.00244119 0)
(1.00597 0.00224736 0)
(1.00669 0.00225365 0)
(1.00755 0.00232195 0)
(1.00875 0.00224974 0)
(1.01018 0.00209984 0)
(1.01158 0.00195541 0)
(1.01273 0.00190094 0)
(1.01345 0.00189424 0)
(1.01346 0.00191214 0)
(1.00002 0.000213604 0)
(1.00026 0.000891629 0)
(1.0013 0.000863211 0)
(1.00195 0.00117247 0)
(1.00225 0.00203231 0)
(1.00313 0.00236145 0)
(1.00412 0.00214614 0)
(1.00425 0.002277 0)
(1.00393 0.00271948 0)
(1.00412 0.00290704 0)
(1.00495 0.00264645 0)
(1.00586 0.00235875 0)
(1.00664 0.00224328 0)
(1.00747 0.00223185 0)
(1.00861 0.00212411 0)
(1.01001 0.0019253 0)
(1.01142 0.0017021 0)
(1.01261 0.00155039 0)
(1.01335 0.00146015 0)
(1.01338 0.00141508 0)
(1.00002 0.000237387 0)
(1.00024 0.000965536 0)
(1.00125 0.00108982 0)
(1.00201 0.00134925 0)
(1.00234 0.00218589 0)
(1.00309 0.0026245 0)
(1.00405 0.00245995 0)
(1.00428 0.00249308 0)
(1.00398 0.00286303 0)
(1.00405 0.00307696 0)
(1.00477 0.00284996 0)
(1.00569 0.00249329 0)
(1.00651 0.00225694 0)
(1.00735 0.00214349 0)
(1.00844 0.00197876 0)
(1.00978 0.00172703 0)
(1.01119 0.00143198 0)
(1.0124 0.00118724 0)
(1.01318 0.00100998 0)
(1.01323 0.00089435 0)
(1.00002 0.000284679 0)
(1.00023 0.00102427 0)
(1.00121 0.00131475 0)
(1.00205 0.00155054 0)
(1.00242 0.00233236 0)
(1.00307 0.0028725 0)
(1.00396 0.00277643 0)
(1.00426 0.00274113 0)
(1.00401 0.00302243 0)
(1.00398 0.00324261 0)
(1.00457 0.0030514 0)
(1.00546 0.00265445 0)
(1.00632 0.00230388 0)
(1.00717 0.00207286 0)
(1.00821 0.00182616 0)
(1.00949 0.00150961 0)
(1.01088 0.0011399 0)
(1.01211 0.000803009 0)
(1.01293 0.000532239 0)
(1.01301 0.000342503 0)
(1.00003 0.000308288 0)
(1.00023 0.00113023 0)
(1.00116 0.00154293 0)
(1.00207 0.00178197 0)
(1.0025 0.00251189 0)
(1.00304 0.00312872 0)
(1.00385 0.00312973 0)
(1.00421 0.00304837 0)
(1.004 0.00323774 0)
(1.00389 0.0034357 0)
(1.00434 0.00327249 0)
(1.00516 0.00284877 0)
(1.00604 0.00239279 0)
(1.0069 0.00203285 0)
(1.0079 0.00167785 0)
(1.00913 0.00127875 0)
(1.01048 0.000821952 0)
(1.01172 0.000387282 0)
(1.01258 1.33552e-05 0)
(1.0127 -0.000269836 0)
(1.00003 0.000348539 0)
(1.00022 0.00123514 0)
(1.0011 0.00176713 0)
(1.00206 0.00204483 0)
(1.00256 0.00270894 0)
(1.00302 0.00337456 0)
(1.00372 0.00347862 0)
(1.0041 0.00339313 0)
(1.00395 0.00349204 0)
(1.00378 0.00365811 0)
(1.00409 0.00351118 0)
(1.00481 0.00307561 0)
(1.00566 0.00252743 0)
(1.00652 0.00203104 0)
(1.0075 0.00154807 0)
(1.00866 0.00103671 0)
(1.00997 0.00047665 0)
(1.01121 -7.35224e-05 0)
(1.0121 -0.000567554 0)
(1.01228 -0.000967331 0)
(1.00002 0.000402807 0)
(1.00022 0.00131195 0)
(1.00105 0.00197262 0)
(1.00203 0.00232179 0)
(1.00259 0.00292732 0)
(1.00301 0.00360875 0)
(1.00359 0.00382628 0)