/*--------------------------------*- C++ -*----------------------------------*\
| =========                 |                                                 |
| \\      /  F ield         | OpenFOAM: The Open Source CFD Toolbox           |
|  \\    /   O peration     | Version:  v2012                                 |
|   \\  /    A nd           | Website:  www.openfoam.com                      |
|    \\/     M anipulation  |                                                 |
\*---------------------------------------------------------------------------*/
FoamFile
{
    version     2.0;
    format      ascii;
    class       volScalarField;
    location    "2.25";
    object      p;
}
// * * * * * * * * * * * * * * * * * * * * * * * * * * * * * * * * * * * * * //

dimensions      [0 2 -2 0 0 0 0];


internalField   nonuniform List<scalar> 
17600
(
-6.27075e-11
-0.00230232
-0.00275425
-0.00371049
-0.00437563
-0.00470448
-0.00572648
-0.00555362
-0.00611322
-0.00648596
-0.00679019
-0.00705792
-0.00742699
-0.00726988
-0.00711396
-0.00640301
-0.0058767
-0.0043962
-0.00260616
0.000995437
1.65261e-07
-0.00230491
-0.00275269
-0.00371378
-0.00437379
-0.00470594
-0.00572499
-0.00555665
-0.00611107
-0.00648883
-0.00678697
-0.00706192
-0.00742315
-0.00727742
-0.0071092
-0.00643423
-0.00586688
-0.00445651
-0.00259209
0.000706139
-1.1855e-06
-0.00230834
-0.00275043
-0.00371871
-0.00436952
-0.00470749
-0.00572288
-0.0055607
-0.00610839
-0.00649325
-0.00678272
-0.00706807
-0.00741819
-0.00728822
-0.00710347
-0.0064639
-0.00585614
-0.00452164
-0.00259228
0.000302446
-4.80319e-06
-0.00231234
-0.00274882
-0.00372403
-0.00436361
-0.00470817
-0.00572085
-0.00556502
-0.0061063
-0.00649792
-0.00677858
-0.00707489
-0.0074134
-0.00730015
-0.0070978
-0.00649397
-0.00584869
-0.00458281
-0.00262299
-9.38951e-05
-1.06744e-05
-0.00231735
-0.00274758
-0.00372934
-0.00435639
-0.00470797
-0.00571885
-0.00556986
-0.00610451
-0.00650289
-0.00677428
-0.00708239
-0.00740837
-0.00731346
-0.00709189
-0.00652634
-0.00584383
-0.00464883
-0.00268487
-0.00046908
-1.85546e-05
-0.00232363
-0.00274621
-0.00373431
-0.00434805
-0.00470696
-0.00571686
-0.00557535
-0.00610265
-0.00650823
-0.00676958
-0.00709058
-0.00740298
-0.0073281
-0.0070859
-0.0065609
-0.0058423
-0.00471886
-0.00277625
-0.000821138
-2.80429e-05
-0.00233117
-0.00274441
-0.00373857
-0.00433879
-0.00470521
-0.00571483
-0.00558143
-0.00610046
-0.00651391
-0.00676444
-0.00709938
-0.00739746
-0.00734383
-0.0070805
-0.00659693
-0.00584604
-0.00479225
-0.00289576
-0.00115441
-3.86791e-05
-0.00233989
-0.00274208
-0.00374197
-0.00432883
-0.00470279
-0.00571272
-0.00558801
-0.00609786
-0.00651991
-0.00675894
-0.00710875
-0.00739208
-0.00736044
-0.00707653
-0.00663351
-0.00585753
-0.00486797
-0.00304209
-0.0014751
-5.0083e-05
-0.0023496
-0.00273926
-0.00374454
-0.00431834
-0.00469986
-0.00571051
-0.00559502
-0.00609484
-0.00652623
-0.00675322
-0.00711864
-0.00738712
-0.00737765
-0.00707483
-0.00666973
-0.00587898
-0.0049455
-0.00321335
-0.00178932
-6.20224e-05
-0.00236013
-0.00273603
-0.00374644
-0.00430745
-0.00469657
-0.00570821
-0.00560241
-0.00609144
-0.00653284
-0.00674741
-0.00712893
-0.00738289
-0.00739505
-0.00707622
-0.00670483
-0.00591201
-0.00502509
-0.00340665
-0.00210235
-7.43944e-05
-0.00237132
-0.0027325
-0.00374783
-0.00429622
-0.00469298
-0.00570586
-0.00561012
-0.00608773
-0.0065397
-0.00674167
-0.00713941
-0.00737981
-0.00741208
-0.00708159
-0.0067383
-0.0059576
-0.00510811
-0.0036182
-0.00241821
-8.71688e-05
-0.00238302
-0.00272878
-0.00374881
-0.00428473
-0.00468911
-0.0057035
-0.00561807
-0.00608379
-0.00654666
-0.0067362
-0.00714974
-0.0073784
-0.00742817
-0.00709189
-0.00677006
-0.00601593
-0.00519702
-0.00384372
-0.00273937
-0.000100343
-0.00239513
-0.00272494
-0.00374941
-0.00427304
-0.00468493
-0.00570118
-0.00562617
-0.00607973
-0.00655357
-0.00673129
-0.00715957
-0.00737914
-0.00744284
-0.00710787
-0.00680088
-0.00608624
-0.00529495
-0.00407929
-0.00306674
-0.000113918
-0.00240755
-0.00272106
-0.00374961
-0.00426122
-0.0046804
-0.00569897
-0.0056343
-0.00607568
-0.00656018
-0.00672727
-0.00716852
-0.00738252
-0.00745583
-0.00713001
-0.00683217
-0.00616706
-0.00540481
-0.00432206
-0.00340012
-0.000127899
-0.00242024
-0.00271721
-0.00374932
-0.00424939
-0.00467541
-0.00569699
-0.00564232
-0.00607181
-0.00656622
-0.0067245
-0.00717625
-0.00738887
-0.00746716
-0.0071583
-0.00686609
-0.00625671
-0.00552863
-0.00457047
-0.00373854
-0.000142292
-0.00243311
-0.00271346
-0.00374846
-0.00423766
-0.00466985
-0.00569536
-0.00565006
-0.00606833
-0.00657138
-0.00672328
-0.00718252
-0.00739842
-0.0074773
-0.0071922
-0.00690499
-0.00635416
-0.00566771
-0.00482382
-0.00408064
-0.000157111
-0.00244611
-0.0027099
-0.0037469
-0.00422618
-0.00466357
-0.00569426
-0.00565731
-0.0060655
-0.00657542
-0.00672384
-0.00718722
-0.0074112
-0.00748727
-0.00723061
-0.00695077
-0.00645925
-0.00582235
-0.00508185
-0.00442504
-0.000172373
-0.00245915
-0.00270661
-0.00374452
-0.00421513
-0.00465639
-0.0056939
-0.00566381
-0.00606352
-0.00657817
-0.00672628
-0.00719043
-0.0074271
-0.00749839
-0.00727228
-0.00700462
-0.00657241
-0.00599193
-0.00534457
-0.00477021
-0.000188104
-0.00247213
-0.0027037
-0.00374113
-0.00420471
-0.00464809
-0.00569453
-0.00566936
-0.00606252
-0.00657966
-0.00673062
-0.00719251
-0.0074456
-0.00751212
-0.0073167
-0.0070674
-0.0066945
-0.00617574
-0.00561201
-0.0051143
-0.000204332
-0.00248495
-0.0027013
-0.00373655
-0.00419518
-0.00463845
-0.00569635
-0.00567382
-0.00606275
-0.00658001
-0.00673671
-0.00719429
-0.00746529
-0.00752992
-0.00736435
-0.00713968
-0.00682674
-0.00637376
-0.0058846
-0.00545555
-0.000221099
-0.00249744
-0.00269957
-0.00373055
-0.00418679
-0.00462723
-0.00569954
-0.00567701
-0.00606387
-0.00657947
-0.00674376
-0.00719695
-0.00748482
-0.00755168
-0.0074163
-0.00722149
-0.00697009
-0.00658664
-0.00616344
-0.00579285
-0.000238453
-0.00250944
-0.00269868
-0.00372288
-0.00417985
-0.00461416
-0.00570423
-0.00567901
-0.00606573
-0.00657849
-0.00675064
-0.00720166
-0.00750421
-0.00757759
-0.007474
-0.00731278
-0.0071248
-0.00681488
-0.00645022
-0.00612627
-0.000256476
-0.0025207
-0.00269887
-0.00371323
-0.00417466
-0.00459911
-0.00571047
-0.00567991
-0.00606789
-0.00657793
-0.00675631
-0.00720906
-0.00752337
-0.00760738
-0.00753873
-0.00741411
-0.00729103
-0.00705836
-0.00674714
-0.00645721
-0.000275287
-0.00253093
-0.00270038
-0.00370134
-0.00417149
-0.00458203
-0.00571818
-0.00568013
-0.00606915
-0.00657909
-0.00675978
-0.00721902
-0.00754225
-0.00764085
-0.00761111
-0.00752692
-0.00746831
-0.0073167
-0.00705769
-0.00678821
-0.000294957
-0.00253985
-0.00270345
-0.00368698
-0.00417054
-0.00456307
-0.00572684
-0.00568086
-0.006068
-0.00658317
-0.00676036
-0.00723098
-0.00755853
-0.00767771
-0.00769069
-0.00765283
-0.00765501
-0.00758956
-0.00738792
-0.00712346
-0.000315645
-0.00254701
-0.00270835
-0.0036699
-0.00417192
-0.00454239
-0.00573597
-0.00568283
-0.00606373
-0.00659052
-0.00675833
-0.00724362
-0.00757963
-0.0077147
-0.00777644
-0.00779235
-0.00784973
-0.00787187
-0.00774081
-0.00747551
-0.000337634
-0.00255188
-0.00271541
-0.00364997
-0.00417577
-0.00452019
-0.00574503
-0.00568672
-0.00605569
-0.00660084
-0.0067558
-0.00725474
-0.007613
-0.00775143
-0.00786747
-0.00794517
-0.00805497
-0.0081549
-0.00810006
-0.00787404
-0.000361079
-0.00255398
-0.00272474
-0.00362732
-0.00418204
-0.00449748
-0.00575236
-0.00569438
-0.00604303
-0.00661366
-0.00675392
-0.00726298
-0.00765332
-0.00779184
-0.00796435
-0.00811464
-0.00827324
-0.00844003
-0.00846772
-0.00828418
-0.00038627
-0.00255284
-0.00273631
-0.00360222
-0.00419025
-0.00447544
-0.00575644
-0.00570689
-0.00602558
-0.00662813
-0.00675399
-0.00726907
-0.00770137
-0.00784751
-0.00806802
-0.00829767
-0.0085052
-0.00872929
-0.00883882
-0.00869875
-0.000413582
-0.00254792
-0.00275002
-0.00357507
-0.00419857
-0.00445497
-0.00575663
-0.0057247
-0.00600369
-0.00664372
-0.00675913
-0.00727581
-0.00776086
-0.00791655
-0.00817278
-0.00848745
-0.00875159
-0.00902437
-0.0092071
-0.00911327
-0.000443251
-0.00253884
-0.0027654
-0.00354653
-0.00420676
-0.00443721
-0.00575238
-0.00574805
-0.0059786
-0.00666023
-0.0067747
-0.00728407
-0.00782786
-0.00799821
-0.00827684
-0.00867826
-0.00901157
-0.00932735
-0.0095698
-0.00952209
-0.000475531
-0.00252538
-0.00278167
-0.00351731
-0.00421404
-0.00442316
-0.00574366
-0.0057771
-0.00595295
-0.00667752
-0.00680568
-0.00729195
-0.00789689
-0.00809445
-0.00838364
-0.00886631
-0.00928192
-0.00963995
-0.00992789
-0.00992109
-0.000510538
-0.00250758
-0.0027978
-0.00348786
-0.00422016
-0.00441336
-0.00573102
-0.00581112
-0.00593077
-0.00669448
-0.00684909
-0.00729864
-0.0079647
-0.00820515
-0.00849776
-0.00904975
-0.0095578
-0.00996242
-0.0102826
-0.0103078
-0.000548305
-0.00248578
-0.00281266
-0.00345856
-0.00422524
-0.00440848
-0.00571546
-0.00585424
-0.00591568
-0.00670787
-0.00690153
-0.00730666
-0.00802378
-0.00832802
-0.00862345
-0.00922867
-0.00983407
-0.0102935
-0.0106358
-0.0106813
-0.000588759
-0.00246048
-0.00282531
-0.00342953
-0.00422932
-0.00440939
-0.00569869
-0.00590611
-0.00590858
-0.00671354
-0.00696099
-0.00732053
-0.00807418
-0.00845899
-0.00876335
-0.0094047
-0.0101063
-0.0106308
-0.0109897
-0.0110423
-0.000631599
-0.00243248
-0.00283511
-0.00340017
-0.00423274
-0.00441766
-0.00568207
-0.00596569
-0.0059107
-0.00670938
-0.00702486
-0.00734497
-0.00811732
-0.00859276
-0.00891809
-0.00958113
-0.0103718
-0.0109707
-0.0113457
-0.011393
-0.000676483
-0.0024026
-0.00284179
-0.00336953
-0.00423568
-0.00443571
-0.00566608
-0.00602924
-0.0059232
-0.00669638
-0.00709061
-0.00738273
-0.00815575
-0.00872465
-0.00908717
-0.00976242
-0.0106295
-0.0113085
-0.0117034
-0.0117354
-0.000722976
-0.00237135
-0.00284604
-0.00333774
-0.00423753
-0.0044649
-0.00565094
-0.00609275
-0.00594752
-0.00667697
-0.00715438
-0.00743432
-0.00819269
-0.00885152
-0.00926896
-0.00995243
-0.0108791
-0.0116389
-0.0120605
-0.0120715
-0.000770409
-0.00233919
-0.00284904
-0.00330483
-0.00423723
-0.00450533
-0.00563777
-0.00615319
-0.00598406
-0.00665388
-0.00721206
-0.00749901
-0.00823204
-0.00897137
-0.00945984
-0.010153
-0.0111208
-0.011957
-0.0124137
-0.012403
-0.000818128
-0.0023065
-0.00285195
-0.00327019
-0.00423366
-0.00455574
-0.00562814
-0.00620847
-0.00603235
-0.00663213
-0.00726117
-0.00757497
-0.00827783
-0.00908351
-0.00965465
-0.0103635
-0.0113559
-0.01226
-0.01276
-0.012732
-0.000865672
-0.00227342
-0.00285602
-0.00324342
-0.00422578
-0.00461346
-0.00562426
-0.00625739
-0.00609132
-0.00661538
-0.00730041
-0.00765901
-0.00833315
-0.00918865
-0.00984797
-0.0105817
-0.0115864
-0.0125469
-0.0130963
-0.0130591
-0.000912761
-0.00223982
-0.00286216
-0.00322373
-0.00421299
-0.00467544
-0.00562712
-0.00629929
-0.00615864
-0.00660718
-0.00733069
-0.0077474
-0.00839951
-0.00928847
-0.0100353
-0.0108043
-0.0118144
-0.0128177
-0.0134187
-0.0133824
-0.000959277
-0.00220541
-0.00287073
-0.00321413
-0.00419572
-0.0047382
-0.00564013
-0.00633453
-0.00623083
-0.0066093
-0.00735439
-0.00783691
-0.00847687
-0.00938519
-0.010214
-0.0110285
-0.0120417
-0.0130733
-0.013723
-0.0136974
-0.00100522
-0.00216986
-0.00288152
-0.00321772
-0.00417563
-0.00479804
-0.00566187
-0.00636481
-0.0063041
-0.00662159
-0.007374
-0.00792497
-0.00856393
-0.00948092
-0.0103829
-0.0112512
-0.0122687
-0.0133151
-0.0140055
-0.0139981
-0.00105069
-0.00213303
-0.00289361
-0.00323656
-0.00415624
-0.00485203
-0.00569154
-0.00639063
-0.00637559
-0.00664318
-0.00739145
-0.00800952
-0.00865864
-0.00957727
-0.010542
-0.011469
-0.0124948
-0.0135445
-0.0142645
-0.014279
-0.00109593
-0.00209544
-0.00290583
-0.0032716
-0.00414171
-0.00489846
-0.00572757
-0.00641785
-0.00644422
-0.00667236
-0.00740767
-0.00808879
-0.0087587
-0.0096754
-0.0106911
-0.0116782
-0.0127178
-0.0137633
-0.0145005
-0.0145361
-0.00114121
-0.0020578
-0.00291687
-0.00332237
-0.00413594
-0.00493677
-0.00576725
-0.0064468
-0.00651028
-0.00670755
-0.00742309
-0.00816127
-0.00886155
-0.00977566
-0.0108298
-0.011875
-0.0129349
-0.0139729
-0.0147157
-0.0147679
-0.00118696
-0.00201644
-0.0029251
-0.00338721
-0.00414359
-0.00496706
-0.00580728
-0.00647832
-0.0065741
-0.0067478
-0.00743832
-0.00822564
-0.00896398
-0.00987715
-0.0109578
-0.0120565
-0.013143
-0.0141744
-0.0149131
-0.0149742
-0.0012338
-0.00198649
-0.00293025
-0.00346306
-0.00416688
-0.0049909
-0.00584489
-0.00651274
-0.00663631
-0.00679228
-0.00745422
-0.00828105
-0.00906205
-0.00997768
-0.0110751
-0.0122208
-0.0133393
-0.0143678
-0.0150955
-0.0151561
-0.00128198
-0.00196249
-0.00293328
-0.00354622
-0.00420708
-0.00501209
-0.00587777
-0.00654891
-0.00669788
-0.00683993
-0.00747151
-0.00832741
-0.00915207
-0.0100742
-0.011181
-0.0123662
-0.0135204
-0.0145518
-0.0152647
-0.0153157
-0.00133225
-0.00194678
-0.00293433
-0.00363262
-0.00426459
-0.00503557
-0.00590503
-0.00658434
-0.00675904
-0.00688975
-0.00748994
-0.00836543
-0.00923164
-0.0101635
-0.0112735
-0.0124903
-0.0136819
-0.0147234
-0.0154222
-0.0154564
-0.0013858
-0.0019412
-0.00293414
-0.0037179
-0.0043385
-0.00506618
-0.00592756
-0.00661662
-0.00681881
-0.00694101
-0.00750835
-0.00839545
-0.00929989
-0.010243
-0.0113505
-0.0125895
-0.013818
-0.0148782
-0.0155681
-0.015582
-0.00144342
-0.00194696
-0.00293424
-0.00379953
-0.00442702
-0.00510748
-0.00594737
-0.00664461
-0.00687571
-0.00699249
-0.00752502
-0.00841619
-0.00935636
-0.010312
-0.0114114
-0.0126607
-0.0139218
-0.0150087
-0.0156991
-0.0156948
-0.00150538
-0.00196524
-0.00293882
-0.00387628
-0.00452703
-0.00516142
-0.00596718
-0.00666852
-0.00692808
-0.00704209
-0.00753767
-0.00842464
-0.00939844
-0.0103702
-0.0114571
-0.0127029
-0.0139873
-0.0151051
-0.0158081
-0.0157937
-0.00157206
-0.00199691
-0.00295115
-0.00394849
-0.0046345
-0.00522858
-0.00598968
-0.00668891
-0.00697529
-0.00708781
-0.00754399
-0.0084174
-0.00942082
-0.0104141
-0.0114886
-0.0127181
-0.0140122
-0.0151577
-0.0158841
-0.0158721
-0.00164484
-0.00204241
-0.0029738
-0.00401775
-0.00474599
-0.00530849
-0.0060172
-0.00670597
-0.00701766
-0.00712888
-0.00754225
-0.00839136
-0.00941735
-0.0104368
-0.0115037
-0.0127088
-0.0139972
-0.0151617
-0.015916
-0.0159191
-0.00172539
-0.00210176
-0.00300923
-0.00408636
-0.00485969
-0.0054001
-0.00605154
-0.00671969
-0.00705425
-0.0071657
-0.00753198
-0.00834397
-0.00938219
-0.0104292
-0.0114954
-0.0126741
-0.0139437
-0.0151153
-0.0158951
-0.0159234
-0.00181519
-0.00217553
-0.00305929
-0.00415714
-0.00497513
-0.00550202
-0.00609381
-0.00673077
-0.00708294
-0.00719744
-0.00751425
-0.0082745
-0.00931031
-0.0103826
-0.0114543
-0.0126087
-0.0138503
-0.0150177
-0.0158178
-0.015875
-0.00191615
-0.00226488
-0.00312495
-0.00423283
-0.00509284
-0.00561379
-0.00614486
-0.0067402
-0.00710209
-0.00722134
-0.00748933
-0.00818407
-0.00919805
-0.0102877
-0.0113691
-0.0125034
-0.0137134
-0.014867
-0.0156806
-0.0157693
-0.00203016
-0.00237032
-0.00320818
-0.00431631
-0.00521375
-0.00573564
-0.0062058
-0.00674841
-0.00711069
-0.00723435
-0.0074553
-0.00807357
-0.00904355
-0.0101363
-0.0112267
-0.0123459
-0.0135243
-0.0146572
-0.0154781
-0.0155981
-0.0021592
-0.0024929
-0.00331066
-0.00441072
-0.00533879
-0.0058671
-0.00627824
-0.00675694
-0.00710806
-0.00723412
-0.00740924
-0.00794231
-0.00884624
-0.00992086
-0.0110136
-0.0121199
-0.0132682
-0.0143765
-0.0152001
-0.0153512
-0.00230571
-0.00263428
-0.00343404
-0.00451854
-0.00546903
-0.00600791
-0.00636405
-0.00676926
-0.00709463
-0.00721841
-0.00734843
-0.00778817
-0.00860432
-0.00963446
-0.0107148
-0.0118057
-0.0129243
-0.0140049
-0.0148223
-0.0149996
-0.00247243
-0.00279637
-0.00358043
-0.00464213
-0.00560528
-0.00615784
-0.00646537
-0.00679
-0.00707348
-0.00718648
-0.00727086
-0.00760916
-0.00831379
-0.00926922
-0.0103133
-0.0113782
-0.0124627
-0.0135101
-0.014316
-0.0145201
-0.00266282
-0.00298134
-0.00375125
-0.0047845
-0.0057486
-0.00631537
-0.00658382
-0.00682484
-0.00705068
-0.00714179
-0.00717709
-0.00740447
-0.00797095
-0.00881384
-0.00978763
-0.0108037
-0.0118432
-0.0128489
-0.0136424
-0.0138791
-0.00288212
-0.00319245
-0.00394795
-0.00494829
-0.00590144
-0.00647904
-0.00671828
-0.00687927
-0.00703524
-0.00709227
-0.00707453
-0.00717929
-0.00757571
-0.00825684
-0.00910907
-0.0100346
-0.0109997
-0.0119566
-0.0127418
-0.0130275
-0.00313379
-0.0034342
-0.0041722
-0.00513597
-0.00606742
-0.0066482
-0.00686596
-0.00695707
-0.00703761
-0.00704876
-0.00697948
-0.00695761
-0.00714107
-0.00758708
-0.00823427
-0.00900252
-0.00984047
-0.0107195
-0.011504
-0.0118829
-0.00342028
-0.00371033
-0.00442554
-0.00535301
-0.00625018
-0.00682308
-0.00702538
-0.00705803
-0.00706858
-0.00702248
-0.00690253
-0.00677664
-0.00673061
-0.00682889
-0.00712156
-0.00758092
-0.00818538
-0.00890895
-0.00970813
-0.0102926
-0.00374261
-0.00401758
-0.00471811
-0.00560539
-0.00645359
-0.00700434
-0.00719283
-0.00718285
-0.00713527
-0.00703125
-0.00684516
-0.00664951
-0.00646976
-0.00622545
-0.00584389
-0.005418
-0.00519375
-0.00539178
-0.00600024
-0.00681625
-0.00410594
-0.00436539
-0.0050519
-0.00589423
-0.00667778
-0.00719021
-0.00736083
-0.00732672
-0.00724309
-0.00710511
-0.00682188
-0.00645333
-0.00627129
-0.0063266
-0.00600772
-0.00481294
-0.00317862
-0.00177129
-0.000851808
-0.000421903
-0.00453438
-0.00477629
-0.00542034
-0.00620562
-0.00691391
-0.00737119
-0.00752148
-0.00747409
-0.00735069
-0.00724198
-0.00702855
-0.00616288
-0.00474691
-0.00335968
-0.00223074
-0.0012543
-0.000233561
0.000815924
0.00165979
0.00190206
-0.0050374
-0.00525728
-0.00583264
-0.00653503
-0.00713986
-0.00752734
-0.00764901
-0.00759821
-0.00736496
-0.00654157
-0.00530818
-0.00404517
-0.00298158
-0.00211011
-0.0012855
-0.000365483
0.000681212
0.00172733
0.0025131
0.00265247
-0.00562002
-0.00580021
-0.00631066
-0.00688182
-0.00730747
-0.00758555
-0.00763158
-0.00706933
-0.00613968
-0.00518541
-0.00433976
-0.00357035
-0.00274684
-0.00179587
-0.000725747
0.000431817
0.00161427
0.00269908
0.00345171
0.0035138
-0.00632854
-0.00641646
-0.00680159
-0.00722437
-0.00736218
-0.00709413
-0.00662724
-0.00605654
-0.00546452
-0.00488271
-0.00422507
-0.00340468
-0.00238802
-0.00122916
1.85157e-05
0.00129773
0.00253493
0.00360586
0.00429146
0.00425376
-0.0071788
-0.00727698
-0.00716331
-0.00696166
-0.00673183
-0.00645276
-0.00613066
-0.00576236
-0.00529129
-0.0046869
-0.00391818
-0.00296536
-0.00185143
-0.000615101
0.000694054
0.00201775
0.00327005
0.00431263
0.00492988
0.00479482
-0.00790549
-0.00786512
-0.00740017
-0.00684229
-0.00640163
-0.00609528
-0.00582251
-0.00547928
-0.00498937
-0.00432268
-0.0034849
-0.0024877
-0.0013475
-8.92802e-05
0.00123805
0.0025657
0.00380118
0.00480539
0.00536361
0.00515431
-0.00845469
-0.00828708
-0.00766929
-0.00691038
-0.00627136
-0.00582628
-0.00548939
-0.00511602
-0.00461155
-0.0039385
-0.00309197
-0.00208346
-0.000932912
0.00032955
0.00165576
0.00297672
0.00419578
0.00517065
0.00568662
0.00542561
-0.00889386
-0.00865078
-0.00792862
-0.00701944
-0.00620303
-0.00560406
-0.00516842
-0.00475982
-0.00425948
-0.00360006
-0.00276307
-0.00175589
-0.000601325
0.000664886
0.00199114
0.00330638
0.00451166
0.00546331
0.00594721
0.00564789
-0.00925091
-0.00895103
-0.00814246
-0.00711571
-0.00616295
-0.00543701
-0.00491222
-0.00446348
-0.00395895
-0.0033134
-0.00249116
-0.00149099
-0.000335237
0.000933426
0.00225902
0.00356833
0.00476144
0.00569456
0.00615445
0.00582757
-0.00952125
-0.00918442
-0.00830522
-0.00719713
-0.00615426
-0.00533734
-0.00473963
-0.00424555
-0.00372025
-0.00306762
-0.00224482
-0.00124749
-9.76701e-05
0.00116484
0.00248322
0.00378278
0.00496339
0.00588152
0.00632429
0.00597859
-0.00968927
-0.00933866
-0.00842863
-0.00727833
-0.00618976
-0.00532685
-0.00468404
-0.00415163
-0.00359896
-0.00292728
-0.00208608
-0.0010712
9.10969e-05
0.00135639
0.00266835
0.00395621
0.00512418
0.00603178
0.00646709
0.0061163
0.00501203
0.000277584
-0.00686937
-0.0119679
-0.0130076
-0.011701
-0.0101594
-0.00910567
-0.00851223
-0.00821094
-0.00808336
-0.00806027
-0.0080966
-0.00816473
-0.00824947
-0.00833955
-0.00842558
-0.00850344
-0.00857467
-0.0086432
-0.00871274
-0.00878474
-0.00885785
-0.00893074
-0.00900507
-0.00908439
-0.00917008
-0.00926024
-0.0093521
-0.0094445
-0.00953774
-0.00963209
-0.00972692
-0.00982116
-0.00991375
-0.0100041
-0.0100917
-0.0101768
-0.0102593
-0.0103397
-0.0104179
-0.0104937
-0.0105669
-0.0106378
-0.0107068
-0.0107742
-0.01084
-0.0109044
-0.0109676
-0.0110297
-0.0110906
-0.0111505
-0.0112096
-0.0112684
-0.0113269
-0.011385
-0.0114425
-0.0114993
-0.0115555
-0.0116112
-0.0116662
-0.0117204
-0.0117738
-0.0118264
-0.0118781
-0.0119287
-0.0119786
-0.0120278
-0.0120764
-0.0121244
-0.0121718
-0.0122188
-0.0122658
-0.0123126
-0.0123594
-0.012406
-0.0124526
-0.0124995
-0.0125467
-0.0125938
-0.0126407
-0.0126874
-0.0127343
-0.0127815
-0.0128287
-0.012876
-0.0129234
-0.0129711
-0.0130191
-0.0130674
-0.0131159
-0.0131643
-0.0132125
-0.0132605
-0.0133084
-0.0133564
-0.0134043
-0.0134522
-0.0135002
-0.0135485
-0.013597
-0.0136455
-0.0136939
-0.0137419
-0.0137898
-0.0138375
-0.0138851
-0.0139327
-0.0139802
-0.014028
-0.0140758
-0.0141237
-0.0141713
-0.0142189
-0.014266
-0.0143134
-0.0143605
-0.0144076
-0.0144545
-0.0145016
-0.0145488
-0.0145959
-0.0146428
-0.0146892
-0.0147357
-0.0147819
-0.0148284
-0.0148746
-0.0149213
-0.0149676
-0.0150142
-0.0150603
-0.0151067
-0.0151527
-0.0151991
-0.0152456
-0.0152922
-0.015339
-0.0153855
-0.0154321
-0.0154781
-0.0155243
-0.0155706
-0.0156173
-0.0156636
-0.0157092
-0.0157547
-0.0157997
-0.0158452
-0.0158898
-0.0159348
-0.0159787
-0.0160224
-0.0160657
-0.0161084
-0.0161511
-0.0161922
-0.0162342
-0.0162743
-0.0163151
-0.0163538
-0.016393
-0.016431
-0.0164683
-0.016506
-0.016542
-0.0165788
-0.0166124
-0.0166473
-0.0166806
-0.016715
-0.0167481
-0.0167786
-0.0168092
-0.0168388
-0.0168715
-0.0169002
-0.0169271
-0.0169532
-0.0169804
-0.0170104
-0.0170334
-0.0170574
-0.0170798
-0.0171054
-0.01713
-0.0171483
-0.0171702
-0.0171887
-0.017212
-0.0172285
-0.0172456
-0.0172621
-0.0172782
-0.0172961
-0.017304
-0.0173197
-0.0173319
-0.0173367
-0.017356
0.00429081
9.52897e-05
-0.00679428
-0.0118302
-0.0129242
-0.0116615
-0.0101346
-0.00908807
-0.00849948
-0.00820126
-0.00807559
-0.00805377
-0.00809102
-0.00815983
-0.00824511
-0.00833564
-0.00842203
-0.0085002
-0.00857168
-0.00864042
-0.00871014
-0.00878232
-0.00885559
-0.00892862
-0.00900308
-0.0090825
-0.00916831
-0.00925857
-0.00935052
-0.00944301
-0.00953633
-0.00963076
-0.00972566
-0.00981996
-0.00991262
-0.010003
-0.0100907
-0.0101758
-0.0102584
-0.0103388
-0.010417
-0.0104929
-0.0105661
-0.0106371
-0.0107061
-0.0107735
-0.0108393
-0.0109038
-0.010967
-0.0110291
-0.01109
-0.0111499
-0.0112091
-0.0112679
-0.0113264
-0.0113846
-0.011442
-0.0114989
-0.0115551
-0.0116108
-0.0116658
-0.01172
-0.0117735
-0.011826
-0.0118777
-0.0119284
-0.0119783
-0.0120275
-0.0120761
-0.0121241
-0.0121715
-0.0122185
-0.0122655
-0.0123123
-0.0123591
-0.0124057
-0.0124524
-0.0124993
-0.0125465
-0.0125936
-0.0126404
-0.0126871
-0.0127341
-0.0127813
-0.0128285
-0.0128758
-0.0129232
-0.0129709
-0.0130189
-0.0130672
-0.0131157
-0.0131641
-0.0132123
-0.0132603
-0.0133083
-0.0133562
-0.0134041
-0.013452
-0.0135001
-0.0135483
-0.0135969
-0.0136454
-0.0136937
-0.0137418
-0.0137897
-0.0138374
-0.013885
-0.0139325
-0.0139801
-0.0140279
-0.0140757
-0.0141236
-0.0141712
-0.0142188
-0.0142659
-0.0143133
-0.0143604
-0.0144075
-0.0144544
-0.0145015
-0.0145487
-0.0145958
-0.0146427
-0.0146892
-0.0147356
-0.0147818
-0.0148283
-0.0148745
-0.0149212
-0.0149675
-0.0150142
-0.0150602
-0.0151066
-0.0151527
-0.015199
-0.0152456
-0.0152921
-0.0153389
-0.0153854
-0.0154321
-0.0154781
-0.0155243
-0.0155705
-0.0156172
-0.0156636
-0.0157091
-0.0157547
-0.0157997
-0.0158452
-0.0158897
-0.0159347
-0.0159786
-0.0160223
-0.0160656
-0.0161084
-0.0161511
-0.0161921
-0.0162342
-0.0162743
-0.0163151
-0.0163537
-0.0163929
-0.016431
-0.0164682
-0.016506
-0.0165419
-0.0165787
-0.0166124
-0.0166473
-0.0166806
-0.016715
-0.0167481
-0.0167786
-0.0168092
-0.0168388
-0.0168714
-0.0169002
-0.0169271
-0.0169532
-0.0169803
-0.0170104
-0.0170333
-0.0170574
-0.0170798
-0.0171054
-0.01713
-0.0171483
-0.0171702
-0.0171887
-0.017212
-0.0172285
-0.0172455
-0.017262
-0.0172782
-0.0172961
-0.017304
-0.0173197
-0.0173319
-0.0173367
-0.017356
0.003531
-9.04503e-05
-0.0066285
-0.0115711
-0.0127731
-0.0116023
-0.0101034
-0.00906401
-0.00848037
-0.00818653
-0.00806422
-0.00804482
-0.00808377
-0.0081538
-0.00823998
-0.00833117
-0.00841809
-0.00849667
-0.00856849
-0.0086375
-0.00870745
-0.00877982
-0.00885326
-0.00892645
-0.00900105
-0.00908059
-0.00916651
-0.00925688
-0.00934893
-0.00944151
-0.00953491
-0.00962942
-0.00972439
-0.00981877
-0.00991149
-0.0100019
-0.0100897
-0.0101749
-0.0102575
-0.010338
-0.0104162
-0.0104921
-0.0105654
-0.0106364
-0.0107055
-0.0107729
-0.0108387
-0.0109032
-0.0109664
-0.0110285
-0.0110895
-0.0111494
-0.0112086
-0.0112674
-0.011326
-0.0113841
-0.0114416
-0.0114984
-0.0115547
-0.0116104
-0.0116654
-0.0117196
-0.0117731
-0.0118257
-0.0118774
-0.0119281
-0.011978
-0.0120271
-0.0120758
-0.0121238
-0.0121712
-0.0122182
-0.0122652
-0.0123121
-0.0123589
-0.0124054
-0.0124521
-0.012499
-0.0125462
-0.0125934
-0.0126402
-0.0126869
-0.0127339
-0.0127811
-0.0128283
-0.0128756
-0.012923
-0.0129707
-0.0130187
-0.013067
-0.0131155
-0.013164
-0.0132122
-0.0132602
-0.0133081
-0.0133561
-0.013404
-0.0134519
-0.0134999
-0.0135482
-0.0135968
-0.0136452
-0.0136936
-0.0137417
-0.0137896
-0.0138373
-0.0138849
-0.0139324
-0.01398
-0.0140278
-0.0140756
-0.0141235
-0.0141711
-0.0142187
-0.0142658
-0.0143132
-0.0143603
-0.0144074
-0.0144543
-0.0145014
-0.0145486
-0.0145957
-0.0146426
-0.0146891
-0.0147355
-0.0147817
-0.0148282
-0.0148744
-0.0149212
-0.0149675
-0.0150141
-0.0150602
-0.0151065
-0.0151526
-0.015199
-0.0152455
-0.0152921
-0.0153389
-0.0153854
-0.015432
-0.015478
-0.0155242
-0.0155705
-0.0156172
-0.0156635
-0.015709
-0.0157546
-0.0157996
-0.0158451
-0.0158897
-0.0159347
-0.0159786
-0.0160223
-0.0160656
-0.0161083
-0.0161511
-0.0161921
-0.0162342
-0.0162742
-0.016315
-0.0163537
-0.0163929
-0.0164309
-0.0164682
-0.0165059
-0.0165419
-0.0165787
-0.0166124
-0.0166473
-0.0166806
-0.016715
-0.0167481
-0.0167786
-0.0168092
-0.0168388
-0.0168714
-0.0169002
-0.0169271
-0.0169532
-0.0169803
-0.0170104
-0.0170333
-0.0170574
-0.0170798
-0.0171054
-0.01713
-0.0171482
-0.0171702
-0.0171887
-0.017212
-0.0172285
-0.0172455
-0.017262
-0.0172782
-0.0172961
-0.017304
-0.0173197
-0.0173319
-0.0173367
-0.017356
0.00281131
-0.000255607
-0.00639585
-0.0112292
-0.0125634
-0.0115183
-0.0100595
-0.00902829
-0.0084508
-0.00816374
-0.00804706
-0.0080317
-0.00807345
-0.00814544
-0.00823302
-0.00832525
-0.00841296
-0.0084922
-0.00856456
-0.00863402
-0.00870429
-0.00877692
-0.00885058
-0.00892397
-0.00899876
-0.00907848
-0.00916453
-0.00925501
-0.00934716
-0.00943984
-0.00953335
-0.00962795
-0.00972301
-0.00981747
-0.00991025
-0.0100007
-0.0100886
-0.0101738
-0.0102565
-0.010337
-0.0104153
-0.0104912
-0.0105646
-0.0106356
-0.0107047
-0.0107722
-0.010838
-0.0109025
-0.0109658
-0.0110279
-0.011089
-0.0111489
-0.0112081
-0.0112669
-0.0113255
-0.0113836
-0.0114412
-0.011498
-0.0115543
-0.01161
-0.011665
-0.0117193
-0.0117727
-0.0118253
-0.011877
-0.0119277
-0.0119776
-0.0120268
-0.0120755
-0.0121235
-0.0121709
-0.0122179
-0.0122649
-0.0123118
-0.0123586
-0.0124052
-0.0124519
-0.0124988
-0.012546
-0.0125932
-0.01264
-0.0126867
-0.0127336
-0.0127809
-0.0128281
-0.0128754
-0.0129228
-0.0129705
-0.0130185
-0.0130669
-0.0131153
-0.0131638
-0.013212
-0.01326
-0.013308
-0.0133559
-0.0134038
-0.0134517
-0.0134998
-0.0135481
-0.0135966
-0.0136451
-0.0136935
-0.0137415
-0.0137894
-0.0138371
-0.0138847
-0.0139323
-0.0139799
-0.0140277
-0.0140755
-0.0141234
-0.014171
-0.0142186
-0.0142657
-0.0143131
-0.0143602
-0.0144073
-0.0144542
-0.0145013
-0.0145485
-0.0145957
-0.0146425
-0.014689
-0.0147355
-0.0147817
-0.0148282
-0.0148744
-0.0149211
-0.0149674
-0.015014
-0.0150601
-0.0151064
-0.0151525
-0.0151989
-0.0152454
-0.015292
-0.0153388
-0.0153853
-0.015432
-0.0154779
-0.0155242
-0.0155704
-0.0156171
-0.0156634
-0.015709
-0.0157546
-0.0157996
-0.0158451
-0.0158896
-0.0159346
-0.0159786
-0.0160222
-0.0160655
-0.0161083
-0.016151
-0.0161921
-0.0162341
-0.0162742
-0.016315
-0.0163537
-0.0163929
-0.0164309
-0.0164682
-0.0165059
-0.0165419
-0.0165787
-0.0166124
-0.0166472
-0.0166806
-0.016715
-0.0167481
-0.0167785
-0.0168092
-0.0168387
-0.0168714
-0.0169002
-0.0169271
-0.0169532
-0.0169803
-0.0170104
-0.0170333
-0.0170574
-0.0170798
-0.0171054
-0.01713
-0.0171482
-0.0171702
-0.0171887
-0.017212
-0.0172285
-0.0172455
-0.017262
-0.0172782
-0.0172961
-0.017304
-0.0173197
-0.0173319
-0.0173367
-0.017356
0.0021236
-0.000428962
-0.00614443
-0.0108575
-0.0123279
-0.0114229
-0.0100092
-0.00898404
-0.0084115
-0.00813231
-0.00802298
-0.0080131
-0.00805873
-0.00813353
-0.00822315
-0.00831688
-0.00840575
-0.00848598
-0.00855921
-0.00862937
-0.00870016
-0.00877314
-0.00884711
-0.0089208
-0.00899588
-0.00907585
-0.00916208
-0.00925269
-0.00934495
-0.00943776
-0.0095314
-0.00962613
-0.0097213
-0.00981585
-0.00990872
-0.0099993
-0.0100872
-0.0101725
-0.0102553
-0.0103359
-0.0104143
-0.0104902
-0.0105636
-0.0106347
-0.0107039
-0.0107714
-0.0108373
-0.0109018
-0.0109651
-0.0110273
-0.0110883
-0.0111483
-0.0112075
-0.0112663
-0.011325
-0.0113831
-0.0114407
-0.0114975
-0.0115538
-0.0116095
-0.0116646
-0.0117189
-0.0117723
-0.0118249
-0.0118766
-0.0119274
-0.0119773
-0.0120265
-0.0120752
-0.0121231
-0.0121706
-0.0122176
-0.0122646
-0.0123115
-0.0123583
-0.0124049
-0.0124516
-0.0124985
-0.0125458
-0.0125929
-0.0126397
-0.0126865
-0.0127334
-0.0127806
-0.0128279
-0.0128752
-0.0129226
-0.0129703
-0.0130183
-0.0130667
-0.0131152
-0.0131636
-0.0132118
-0.0132598
-0.0133078
-0.0133557
-0.0134037
-0.0134516
-0.0134996
-0.0135479
-0.0135965
-0.013645
-0.0136933
-0.0137414
-0.0137893
-0.013837
-0.0138846
-0.0139322
-0.0139798
-0.0140276
-0.0140753
-0.0141233
-0.0141709
-0.0142185
-0.0142656
-0.014313
-0.0143601
-0.0144072
-0.0144541
-0.0145012
-0.0145484
-0.0145956
-0.0146424
-0.0146889
-0.0147354
-0.0147816
-0.0148281
-0.0148743
-0.014921
-0.0149673
-0.0150139
-0.01506
-0.0151064