/*--------------------------------*- C++ -*----------------------------------*\
| =========                 |                                                 |
| \\      /  F ield         | OpenFOAM: The Open Source CFD Toolbox           |
|  \\    /   O peration     | Version:  v2012                                 |
|   \\  /    A nd           | Website:  www.openfoam.com                      |
|    \\/     M anipulation  |                                                 |
\*---------------------------------------------------------------------------*/
FoamFile
{
    version     2.0;
    format      ascii;
    class       surfaceScalarField;
    location    "2.25";
    object      phi;
}
// * * * * * * * * * * * * * * * * * * * * * * * * * * * * * * * * * * * * * //

dimensions      [0 3 -1 0 0 0 0];
oriented        oriented;


internalField   nonuniform List<scalar> 
34900
(
1.17185e-06
4.52379e-07
1.15261e-06
-6.78212e-07
1.1677e-06
5.80542e-07
1.14332e-06
-3.73078e-07
1.15727e-06
1.35599e-07
1.14632e-06
6.31848e-08
1.15371e-06
-2.96003e-08
1.14478e-06
1.67549e-08
1.15268e-06
2.47076e-08
1.14334e-06
-3.98265e-08
1.15157e-06
1.42293e-08
1.14237e-06
-3.43239e-08
1.15088e-06
2.30467e-08
1.14103e-06
-2.06739e-08
1.14976e-06
3.69619e-08
1.13914e-06
4.46411e-09
1.14768e-06
5.97905e-08
1.13543e-06
1.45573e-08
1.13908e-06
8.35998e-08
2.5285e-08
1.10361e-06
1.22387e-06
4.52772e-07
1.20471e-06
-6.59053e-07
1.21656e-06
5.68693e-07
1.19478e-06
-3.51299e-07
1.20603e-06
1.2435e-07
1.20083e-06
6.83825e-08
1.2057e-06
-3.44722e-08
1.2012e-06
2.12617e-08
1.20543e-06
2.04786e-08
1.20105e-06
-3.54555e-08
1.20392e-06
1.13644e-08
1.20195e-06
-3.23556e-08
1.20239e-06
2.2608e-08
1.20302e-06
-2.13089e-08
1.19937e-06
4.06182e-08
1.20463e-06
-7.92522e-10
1.19408e-06
7.03387e-08
1.20458e-06
4.05776e-09
1.18106e-06
1.07117e-07
1.95647e-08
1.18678e-06
1.27866e-06
4.56892e-07
1.25936e-06
-6.39749e-07
1.2673e-06
5.60755e-07
1.25056e-06
-3.34566e-07
1.25594e-06
1.18978e-07
1.25896e-06
6.53623e-08
1.259e-06
-3.45118e-08
1.26145e-06
1.88062e-08
1.26e-06
2.19321e-08
1.26296e-06
-3.84206e-08
1.25922e-06
1.51096e-08
1.26463e-06
-3.77636e-08
1.25844e-06
2.87993e-08
1.26549e-06
-2.83585e-08
1.25696e-06
4.91467e-08
1.26518e-06
-9.01908e-09
1.25547e-06
8.00552e-08
1.26098e-06
-1.45115e-09
1.25049e-06
1.17604e-07
3.15226e-08
1.23853e-06
1.33738e-06
4.63615e-07
1.31912e-06
-6.21484e-07
1.32292e-06
5.56947e-07
1.31309e-06
-3.24737e-07
1.31103e-06
1.21042e-07
1.32141e-06
5.49846e-08
1.31728e-06
-3.03887e-08
1.32424e-06
1.18515e-08
1.31983e-06
2.63414e-08
1.3264e-06
-4.49955e-08
1.32076e-06
2.07534e-08
1.32754e-06
-4.45415e-08
1.32178e-06
3.45585e-08
1.32741e-06
-3.39849e-08
1.32229e-06
5.42654e-08
1.32621e-06
-1.29436e-08
1.32274e-06
8.35313e-08
1.32199e-06
-7.01228e-10
1.31877e-06
1.20819e-07
4.73499e-08
1.30294e-06
1.40083e-06
4.71141e-07
1.38457e-06
-6.05222e-07
1.38534e-06
5.56169e-07
1.38175e-06
-3.2114e-07
1.37415e-06
1.28639e-07
1.3881e-06
4.10386e-08
1.38273e-06
-2.50247e-08
1.39028e-06
4.29932e-09
1.38659e-06
3.00374e-08
1.39274e-06
-5.11485e-08
1.38895e-06
2.4548e-08
1.3937e-06
-4.92963e-08
1.39086e-06
3.74042e-08
1.39362e-06
-3.67484e-08
1.39165e-06
5.62297e-08
1.3928e-06
-1.40916e-08
1.39188e-06
8.44544e-08
1.38886e-06
2.31866e-09
1.38753e-06
1.22153e-07
6.31952e-08
1.37168e-06
1.46925e-06
4.77571e-07
1.45541e-06
-5.91388e-07
1.45497e-06
5.56614e-07
1.45513e-06
-3.21305e-07
1.44569e-06
1.38086e-07
1.45918e-06
2.75435e-08
1.45507e-06
-2.09119e-08
1.46099e-06
-1.62279e-09
1.45946e-06
3.15706e-08
1.46378e-06
-5.54728e-08
1.46219e-06
2.61393e-08
1.46494e-06
-5.20441e-08
1.46391e-06
3.84304e-08
1.46502e-06
-3.7861e-08
1.46427e-06
5.69857e-08
1.46417e-06
-1.3996e-08
1.46411e-06
8.45205e-08
1.45966e-06
6.76479e-09
1.45959e-06
1.22223e-07
7.91361e-08
1.44365e-06
1.54226e-06
4.81526e-07
1.53079e-06
-5.79917e-07
1.53076e-06
5.56646e-07
1.53204e-06
-3.22581e-07
1.52382e-06
1.46303e-07
1.53462e-06
1.67439e-08
1.53236e-06
-1.86508e-08
1.53651e-06
-5.77603e-09
1.53654e-06
3.15422e-08
1.53938e-06
-5.83133e-08
1.53892e-06
2.65968e-08
1.54051e-06
-5.36285e-08
1.54012e-06
3.88184e-08
1.54034e-06
-3.80796e-08
1.54005e-06
5.72676e-08
1.53898e-06
-1.29242e-08
1.53961e-06
8.38951e-08
1.53369e-06
1.26866e-08
1.53474e-06
1.21173e-07
9.4874e-08
1.519e-06
1.61911e-06
4.82545e-07
1.60966e-06
-5.70467e-07
1.61096e-06
5.55342e-07
1.61164e-06
-3.23255e-07
1.60599e-06
1.51947e-07
1.61377e-06
8.96823e-09
1.61271e-06
-1.75874e-08
1.61579e-06
-8.85633e-09
1.61638e-06
3.09442e-08
1.61834e-06
-6.02669e-08
1.61823e-06
2.67045e-08
1.61912e-06
-5.45165e-08
1.61895e-06
3.89914e-08
1.61844e-06
-3.75754e-08
1.61857e-06
5.7139e-08
1.61646e-06
-1.08161e-08
1.61782e-06
8.25381e-08
1.61049e-06
2.00162e-08
1.61234e-06
1.19327e-07
1.09877e-07
1.59733e-06
1.69911e-06
4.81004e-07
1.69121e-06
-5.6256e-07
1.69408e-06
5.52467e-07
1.69353e-06
-3.22698e-07
1.69042e-06
1.55048e-07
1.69583e-06
3.55828e-09
1.69521e-06
-1.69679e-08
1.69776e-06
-1.14028e-08
1.6984e-06
3.0302e-08
1.6998e-06
-6.16657e-08
1.69979e-06
2.67136e-08
1.70013e-06
-5.48551e-08
1.70017e-06
3.89574e-08
1.69894e-06
-3.63478e-08
1.69958e-06
5.65018e-08
1.69639e-06
-7.62703e-09
1.69847e-06
8.04567e-08
1.68994e-06
2.85472e-08
1.69218e-06
1.17079e-07
1.23644e-07
1.67842e-06
1.78205e-06
4.77675e-07
1.77515e-06
-5.55657e-07
1.77947e-06
5.48142e-07
1.7777e-06
-3.20924e-07
1.77659e-06
1.56162e-07
1.78042e-06
-2.74223e-10
1.77989e-06
-1.64384e-08
1.78209e-06
-1.36026e-08
1.78268e-06
2.97093e-08
1.78365e-06
-6.26373e-08
1.78378e-06
2.65918e-08
1.7836e-06
-5.46788e-08
1.78398e-06
3.85794e-08
1.78201e-06
-3.43838e-08
1.78328e-06
5.52329e-08
1.77904e-06
-3.38254e-09
1.78176e-06
7.77335e-08
1.77236e-06
3.79516e-08
1.77456e-06
1.14875e-07
1.35743e-07
1.76246e-06
1.86815e-06
4.73272e-07
1.86172e-06
-5.49222e-07
1.86729e-06
5.42563e-07
1.86451e-06
-3.1814e-07
1.86486e-06
1.55808e-07
1.86767e-06
-3.0787e-09
1.86721e-06
-1.5979e-08
1.86905e-06
-1.54482e-08
1.86969e-06
2.90726e-08
1.87026e-06
-6.32111e-08
1.87065e-06
2.62094e-08
1.86995e-06
-5.39844e-08
1.87085e-06
3.76843e-08
1.86815e-06
-3.16865e-08
1.87015e-06
5.32311e-08
1.86497e-06
1.8026e-09
1.86816e-06
7.45399e-08
1.85832e-06
4.77954e-08
1.86003e-06
1.13166e-07
1.45848e-07
1.84992e-06
1.95787e-06
4.68244e-07
1.95145e-06
-5.42809e-07
1.95813e-06
5.3589e-07
1.95449e-06
-3.14505e-07
1.95599e-06
1.54305e-07
1.95805e-06
-5.13482e-09
1.95778e-06
-1.57115e-08
1.95921e-06
-1.68732e-08
1.96002e-06
2.82558e-08
1.96017e-06
-6.33599e-08
1.96096e-06
2.54214e-08
1.95972e-06
-5.27406e-08
1.96128e-06
3.61177e-08
1.95788e-06
-2.82784e-08
1.96065e-06
5.04616e-08
1.95473e-06
7.72033e-09
1.95813e-06
7.11358e-08
1.94834e-06
5.75893e-08
1.94918e-06
1.12328e-07
1.53792e-07
1.94123e-06
2.05164e-06
4.62793e-07
2.04494e-06
-5.36111e-07
2.05261e-06
5.28221e-07
2.04819e-06
-3.10084e-07
2.0507e-06
1.51797e-07
2.0521e-06
-6.536e-09
2.05218e-06
-1.57866e-08
2.05311e-06
-1.78025e-08
2.05424e-06
2.71236e-08
2.0539e-06
-6.30179e-08
2.05522e-06
2.40974e-08
2.05338e-06
-5.08958e-08
2.05571e-06
3.3778e-08
2.05165e-06
-2.42099e-08
2.05512e-06
4.69909e-08
2.04875e-06
1.40842e-08
2.05204e-06
6.78528e-08
2.04276e-06
6.68605e-08
2.04249e-06
1.12598e-07
1.59604e-07
2.03668e-06
2.14982e-06
4.56971e-07
2.14265e-06
-5.28942e-07
2.15127e-06
5.19603e-07
2.14607e-06
-3.04879e-07
2.14954e-06
1.48321e-07
2.15028e-06
-7.27278e-09
2.15084e-06
-1.63498e-08
2.1512e-06
-1.81594e-08
2.15278e-06
2.55457e-08
2.15186e-06
-6.21016e-08
2.15382e-06
2.21335e-08
2.15133e-06
-4.84005e-08
2.15447e-06
3.06405e-08
2.14984e-06
-1.95794e-08
2.15382e-06
4.30021e-08
2.14735e-06
2.05613e-08
2.15015e-06
6.50529e-08
2.14179e-06
7.5223e-08
2.14033e-06
1.14055e-07
1.63498e-07
2.13643e-06
2.25269e-06
4.50772e-07
2.24494e-06
-5.21194e-07
2.25449e-06
5.10049e-07
2.24847e-06
-2.98856e-07
2.25293e-06
1.43867e-07
2.25294e-06
-7.2866e-09
2.25413e-06
-1.75388e-08
2.25384e-06
-1.78665e-08
2.25598e-06
2.33987e-08
2.25441e-06
-6.05329e-08
2.25709e-06
1.94603e-08
2.25393e-06
-4.52386e-08
2.2578e-06
2.67692e-08
2.25277e-06
-1.45566e-08
2.257e-06
3.87798e-08
2.25074e-06
2.68126e-08
2.25273e-06
6.30721e-08
2.24553e-06
8.24222e-08
2.24296e-06
1.16625e-07
1.65835e-07
2.24062e-06
2.36048e-06
4.44172e-07
2.35208e-06
-5.12799e-07
2.36259e-06
4.99542e-07
2.3557e-06
-2.91965e-07
2.36117e-06
1.38398e-07
2.36038e-06
-6.49778e-09
2.36232e-06
-1.94836e-08
2.3613e-06
-1.6849e-08
2.36413e-06
2.05747e-08
2.36186e-06
-5.82609e-08
2.36526e-06
1.60564e-08
2.36148e-06
-4.1459e-08
2.36593e-06
2.23225e-08
2.36076e-06
-9.39174e-09
2.36487e-06
3.46708e-08
2.35914e-06
3.25388e-08
2.36006e-06
6.21518e-08
2.35411e-06
8.83754e-08
2.35064e-06
1.20094e-07
1.67055e-07
2.34942e-06
2.47342e-06
4.37148e-07
2.46432e-06
-5.03697e-07
2.47581e-06
4.88046e-07
2.468e-06
-2.84151e-07
2.47454e-06
1.31862e-07
2.47286e-06
-4.81926e-09
2.47568e-06
-2.23021e-08
2.47387e-06
-1.50426e-08
2.47745e-06
1.69955e-08
2.47447e-06
-5.52804e-08
2.47856e-06
1.1966e-08
2.4743e-06
-3.72008e-08
2.47907e-06
1.75492e-08
2.47408e-06
-4.39839e-09
2.47773e-06
3.10263e-08
2.47274e-06
3.75199e-08
2.47251e-06
6.23907e-08
2.4677e-06
9.31819e-08
2.46367e-06
1.24125e-07
1.67621e-07
2.4631e-06
2.59177e-06
4.29675e-07
2.58191e-06
-4.93835e-07
2.59444e-06
4.75508e-07
2.58564e-06
-2.75345e-07
2.59331e-06
1.24192e-07
2.59065e-06
-2.16497e-09
2.59444e-06
-2.60931e-08
2.59181e-06
-1.24049e-08
2.59617e-06
1.26298e-08
2.59254e-06
-5.16493e-08
2.59719e-06
7.31639e-09
2.59269e-06
-3.2704e-08
2.59747e-06
1.2769e-08
2.59298e-06
8.97097e-11
2.59587e-06
2.81368e-08
2.59174e-06
4.16502e-08
2.59041e-06
6.37227e-08
2.5865e-06
9.70887e-08
2.5823e-06
1.28325e-07
1.6796e-07
2.58197e-06
2.71577e-06
4.21731e-07
2.70509e-06
-4.83156e-07
2.71874e-06
4.61864e-07
2.70887e-06
-2.65475e-07
2.71775e-06
1.15315e-07
2.71404e-06
1.54187e-09
2.71887e-06
-3.09262e-08
2.7154e-06
-8.93036e-09
2.72052e-06
7.50985e-09
2.71637e-06
-4.75046e-08
2.72136e-06
2.32827e-09
2.71695e-06
-2.82974e-08
2.72139e-06
8.32949e-09
2.7177e-06
3.78292e-09
2.71966e-06
2.61739e-08
2.71636e-06
4.49581e-08
2.71412e-06
6.59588e-08
2.71081e-06
1.00396e-07
2.70681e-06
1.32331e-07
1.68396e-07
2.70637e-06
2.84571e-06
4.13294e-07
2.83415e-06
-4.71601e-07
2.84898e-06
4.47036e-07
2.83797e-06
-2.54468e-07
2.84813e-06
1.05155e-07
2.84331e-06
6.35947e-09
2.84922e-06
-3.68311e-08
2.84495e-06
-4.66641e-09
2.85072e-06
1.74773e-09
2.84629e-06
-4.30762e-08
2.8513e-06
-2.68455e-09
2.84737e-06
-2.43663e-08
2.85114e-06
4.55782e-09
2.84844e-06
6.48725e-09
2.84946e-06
2.51541e-08
2.84683e-06
4.75867e-08
2.84392e-06
6.88673e-08
2.84095e-06
1.03365e-07
2.83741e-06
1.35876e-07
1.69123e-07
2.83668e-06
2.98185e-06
4.04342e-07
2.96935e-06
-4.591e-07
2.98545e-06
4.30934e-07
2.97323e-06
-2.42247e-07
2.98474e-06
9.36425e-08
2.97878e-06
1.23152e-08
2.98574e-06
-4.37833e-08
2.9808e-06
2.67228e-10
2.987e-06
-4.44911e-09
2.98262e-06
-3.86953e-08
2.98726e-06
-7.32959e-09
2.98421e-06
-2.13119e-08
2.98705e-06
1.71325e-09
2.9854e-06
8.14163e-09
2.98561e-06
2.49417e-08
2.98347e-06
4.97242e-08
2.98009e-06
7.22538e-08
2.97726e-06
1.06196e-07
2.97432e-06
1.38811e-07
1.7021e-07
2.97324e-06
3.12449e-06
3.94856e-07
3.11097e-06
-4.4558e-07
3.12845e-06
4.13461e-07
3.11495e-06
-2.28747e-07
3.12786e-06
8.0732e-08
3.12078e-06
1.93884e-08
3.12868e-06
-5.16845e-08
3.1233e-06
5.65534e-09
3.12961e-06
-1.07662e-08
3.12569e-06
-3.47733e-08
3.12956e-06
-1.11956e-08
3.12772e-06
-1.94743e-08
3.1295e-06
-7.02115e-11
3.12882e-06
8.82461e-09
3.12846e-06
2.53021e-08
3.12668e-06
5.14993e-08
3.12296e-06
7.59774e-08
3.12007e-06
1.09091e-07
3.11774e-06
1.41131e-07
1.71586e-07
3.11637e-06
3.27395e-06
3.84815e-07
3.25933e-06
-4.30957e-07
3.27827e-06
3.94515e-07
3.26345e-06
-2.13924e-07
3.27777e-06
6.6417e-08
3.26966e-06
2.74895e-08
3.27832e-06
-6.03417e-08
3.27281e-06
1.11691e-08
3.27882e-06
-1.67798e-08
3.27583e-06
-3.17823e-08
3.27854e-06
-1.39042e-08
3.2781e-06
-1.90343e-08
3.27891e-06
-8.80646e-10
3.27895e-06
8.78002e-09
3.27834e-06
2.59203e-08
3.27694e-06
5.28974e-08
3.27304e-06
7.98714e-08
3.26981e-06
1.12322e-07
3.26762e-06
1.43327e-07
1.7275e-07
3.26645e-06
3.43054e-06
3.74204e-07
3.41473e-06
-4.15144e-07
3.43524e-06
3.74001e-07
3.41909e-06
-1.9777e-07
3.43476e-06
5.07506e-08
3.42581e-06
3.64399e-08
3.43492e-06
-6.94523e-08
3.42971e-06
1.63755e-08
3.43495e-06
-2.20165e-08
3.4333e-06
-3.01333e-08
3.43467e-06
-1.52758e-08
3.43547e-06
-1.98343e-08
3.43578e-06
-1.18989e-09
3.43603e-06
8.52636e-09
3.43568e-06
2.62682e-08
3.43488e-06
5.37039e-08
3.43145e-06
8.33028e-08
3.42778e-06
1.15985e-07
3.42352e-06
1.47595e-07
1.72038e-07
3.42423e-06
3.59461e-06
3.63009e-07
3.57752e-06
-3.98056e-07
3.59968e-06
3.51844e-07
3.58224e-06
-1.80331e-07
3.59913e-06
3.38613e-08
3.5896e-06
4.59668e-08
3.59878e-06
-7.8631e-08
3.59435e-06
2.08048e-08
3.59839e-06
-2.60616e-08
3.59828e-06
-3.00166e-08
3.59852e-06
-1.55227e-08
3.59989e-06
-2.11986e-08
3.60069e-06
-1.99176e-09
3.60032e-06
8.90119e-09
3.60113e-06
2.54489e-08
3.60135e-06
5.3487e-08
3.60116e-06
8.34957e-08
3.59921e-06
1.17936e-07
3.58958e-06
1.57226e-07
1.70442e-07
3.59117e-06
3.76649e-06
3.51225e-07
3.74806e-06
-3.79629e-07
3.77189e-06
3.28016e-07
3.7533e-06
-1.61737e-07
3.77117e-06
1.5986e-08
3.76147e-06
5.56724e-08
3.77021e-06
-8.7377e-08
3.76711e-06
2.39041e-08
3.76954e-06
-2.84874e-08
3.77105e-06
-3.15233e-08
3.7705e-06
-1.49788e-08
3.7718e-06
-2.24929e-08
3.77377e-06
-3.96181e-09
3.77255e-06
1.01156e-08
3.77506e-06
2.29456e-08
3.77487e-06
5.36707e-08
3.77375e-06
8.46218e-08
3.77522e-06
1.16464e-07
3.78778e-06
1.44662e-07
1.9214e-07
3.76608e-06
3.94656e-06
3.38856e-07
3.92677e-06
-3.59841e-07
3.95221e-06
3.02577e-07
3.93272e-06
-1.42248e-07
3.95119e-06
-2.48768e-09
3.94188e-06
6.49822e-08
3.94953e-06
-9.50249e-08
3.94843e-06
2.50034e-08
3.94875e-06
-2.88072e-08
3.95203e-06
-3.48029e-08
3.95074e-06
-1.36844e-08
3.95199e-06
-2.3751e-08
3.9547e-06
-6.66956e-09
3.95338e-06
1.14385e-08
3.95223e-06
2.40958e-08
3.94638e-06
5.95168e-08
3.94239e-06
8.86176e-08
3.93933e-06
1.19523e-07
3.93308e-06
1.50905e-07
1.85131e-07
3.94009e-06
4.13519e-06
3.25916e-07
4.11407e-06
-3.38718e-07
4.14096e-06
2.75688e-07
4.12094e-06
-1.22236e-07
4.13953e-06
-2.10734e-08
4.13125e-06
7.32593e-08
4.13719e-06
-1.0096e-07
4.13854e-06
2.36463e-08
4.13661e-06
-2.68695e-08
4.14141e-06
-3.96037e-08
4.13964e-06
-1.1916e-08
4.14058e-06
-2.46944e-08
4.14223e-06
-8.31911e-09
4.137e-06
1.6672e-08
4.13086e-06
3.02303e-08
4.12812e-06
6.22602e-08
4.12403e-06
9.27074e-08
4.12063e-06
1.22922e-07
4.11784e-06
1.53698e-07
1.7994e-07
4.12303e-06
4.33278e-06
3.12438e-07
4.31042e-06
-3.16359e-07
4.33846e-06
2.47646e-07
4.31844e-06
-1.02214e-07
4.33657e-06
-3.9197e-08
4.32998e-06
7.98468e-08
4.33372e-06
-1.04699e-07
4.33765e-06
1.97125e-08
4.33374e-06
-2.29591e-08
4.33925e-06
-4.5112e-08
4.3373e-06
-9.96879e-09
4.3353e-06
-2.26948e-08
4.33326e-06
-6.27331e-09
4.32773e-06
2.22022e-08
4.32202e-06
3.59395e-08
4.31988e-06
6.44004e-08
4.31642e-06
9.61664e-08
4.31366e-06
1.25679e-07
4.31303e-06
1.54327e-07
1.76059e-07
4.31691e-06
4.53974e-06
2.98472e-07
4.51633e-06
-2.92949e-07
4.54507e-06
2.18907e-07
4.5257e-06
-8.28394e-08
4.54272e-06
-5.62178e-08
4.53846e-06
8.41038e-08
4.53968e-06
-1.05919e-07
4.546e-06
1.33954e-08
4.54058e-06
-1.75444e-08
4.54525e-06
-4.97801e-08
4.54224e-06
-6.96117e-09
4.53617e-06
-1.6619e-08
4.53417e-06
-4.27502e-09
4.52935e-06
2.70218e-08
4.5236e-06
4.16849e-08
4.52142e-06
6.65864e-08
4.51886e-06
9.87215e-08
4.51685e-06
1.27694e-07
4.51777e-06
1.53399e-07
1.73259e-07
4.52057e-06
4.7565e-06
2.84085e-07
4.73232e-06
-2.68767e-07
4.76115e-06
1.90073e-07
4.74314e-06
-6.48267e-08
4.7585e-06
-7.15813e-08
4.75697e-06
8.56414e-08
4.7557e-06
-1.04655e-07
4.76374e-06
5.35585e-09
4.75702e-06
-1.08197e-08
4.7588e-06
-5.15595e-08
4.75496e-06
-3.1289e-09
4.74722e-06
-8.87571e-09
4.74528e-06
-2.33051e-09
4.74145e-06
3.08462e-08
4.7356e-06
4.75401e-08
4.73308e-06
6.91067e-08
4.73143e-06
1.00366e-07
4.73023e-06
1.28896e-07
4.73189e-06
1.51738e-07
1.70806e-07
4.73434e-06
4.98352e-06
2.69359e-07
4.95892e-06
-2.44167e-07
4.98714e-06
1.61856e-07
4.97119e-06
-4.88736e-08
4.98452e-06
-8.49089e-08
4.98573e-06
8.44271e-08
4.98232e-06
-1.01243e-07
4.99083e-06
-3.15889e-09
4.98227e-06
-2.25618e-09
4.98068e-06
-4.99666e-08
4.97781e-06
-2.65859e-10
4.96919e-06
-2.5519e-10
4.96687e-06
-3.85085e-12
4.96406e-06
3.36563e-08
4.95834e-06
5.32589e-08
4.95533e-06
7.21126e-08
4.95446e-06
1.01241e-07
4.95422e-06
1.29137e-07
4.95573e-06
1.50228e-07
1.67995e-07
4.95854e-06
5.22129e-06
2.54391e-07
5.19669e-06
-2.19571e-07
5.22354e-06
1.35008e-07
5.21018e-06
-3.55152e-08
5.22136e-06
-9.60904e-08
5.22498e-06
8.08032e-08
5.21967e-06
-9.59317e-08
5.2271e-06
-1.05914e-08
5.21677e-06
8.07443e-09
5.21294e-06
-4.61286e-08
5.21138e-06
1.29319e-09
5.20263e-06
8.49199e-09
5.19937e-06
3.25231e-09
5.19746e-06
3.55725e-08
5.1922e-06
5.85187e-08
5.18872e-06
7.55914e-08
5.18844e-06
1.01517e-07
5.18903e-06
1.28548e-07
5.1904e-06
1.48861e-07
1.64848e-07
5.19355e-06
5.4703e-06
2.39276e-07
5.44617e-06
-1.95434e-07
5.47096e-06
1.10215e-07
5.46038e-06
-2.49349e-08
5.46957e-06
-1.05277e-07
5.47483e-06
7.55429e-08
5.46732e-06
-8.84227e-08
5.47282e-06
-1.60948e-08
5.46222e-06
1.86698e-08
5.45647e-06
-4.03775e-08
5.45613e-06
1.63495e-09
5.44792e-06
1.6707e-08
5.44339e-06
7.7827e-09
5.4421e-06
3.68639e-08
5.43759e-06
6.30281e-08
5.43381e-06
7.93689e-08
5.43389e-06
1.0144e-07
5.43508e-06
1.27349e-07
5.43665e-06
1.473e-07
1.61542e-07
5.43995e-06
5.73113e-06
2.24108e-07
5.7079e-06
-1.72213e-07
5.73018e-06
8.79383e-08
5.722e-06
-1.67492e-08
5.72941e-06
-1.12686e-07
5.73507e-06
6.98779e-08
5.72469e-06
-7.80426e-08
5.72935e-06
-2.07531e-08
5.71967e-06
2.83452e-08
5.71215e-06
-3.28556e-08
5.71257e-06
1.21748e-09
5.70534e-06
2.3933e-08
5.69958e-06
1.35464e-08
5.6985e-06
3.7942e-08
5.69495e-06
6.65796e-08
5.69115e-06
8.31634e-08
5.6913e-06
1.01297e-07
5.69295e-06
1.25697e-07
5.69495e-06
1.45297e-07
1.58114e-07
5.69838e-06
6.00433e-06
2.08967e-07
5.98244e-06
-1.50318e-07
6.00203e-06
6.83457e-08
5.99533e-06
-1.00502e-08
6.00077e-06
-1.18125e-07
6.00612e-06
6.45324e-08
5.9935e-06
-6.54286e-08
5.99772e-06
-2.49674e-08
5.98982e-06
3.62424e-08
5.98066e-06
-2.3696e-08
5.98124e-06
6.35919e-10
5.9753e-06
2.98802e-08
5.96858e-06
2.02653e-08
5.9673e-06
3.92224e-08
5.96476e-06
6.91116e-08
5.9613e-06
8.66303e-08
5.96126e-06
1.01334e-07
5.96325e-06
1.23708e-07
5.96581e-06
1.42737e-07
1.54503e-07
5.96942e-06
6.29054e-06
1.93913e-07
6.27026e-06
-1.3004e-07
6.28734e-06
5.12679e-08
6.28093e-06
-3.63526e-09
6.28375e-06
-1.20944e-07
6.28938e-06
5.88927e-08
6.27545e-06
-5.14954e-08
6.27878e-06
-2.82955e-08
6.27314e-06
4.1881e-08
6.26267e-06
-1.32213e-08
6.26278e-06
5.20711e-10
6.25823e-06
3.44366e-08
6.25099e-06
2.74988e-08
6.24917e-06
4.10398e-08
6.24756e-06
7.07216e-08
6.24476e-06
8.94388e-08
6.24442e-06
1.01672e-07
6.24663e-06
1.21497e-07
6.24976e-06
1.39605e-07
1.50621e-07
6.25364e-06
6.59039e-06
1.78996e-07
6.57187e-06
-1.11519e-07
6.58683e-06
3.63035e-08
6.57977e-06
3.42048e-09
6.57957e-06
-1.20736e-07
6.58617e-06
5.22897e-08
6.57152e-06
-3.68466e-08
6.5734e-06
-3.01794e-08
6.57006e-06
4.52264e-08
6.55879e-06
-1.95546e-09
6.5579e-06
1.41158e-09
6.55466e-06
3.76784e-08
6.54741e-06
3.47518e-08
6.54487e-06
4.35739e-08
6.54396e-06
7.16363e-08
6.54204e-06
9.13605e-08
6.54145e-06
1.0226e-07
6.54375e-06
1.19201e-07
6.54739e-06
1.35965e-07
1.46394e-07
6.55161e-06
6.90453e-06
1.64256e-07
6.88776e-06
-9.47532e-08
6.90111e-06
2.29561e-08
6.89317e-06
1.13591e-08
6.88967e-06
-1.17229e-07
6.89717e-06
4.47852e-08
6.88248e-06
-2.21501e-08
6.88238e-06
-3.00803e-08
6.88107e-06
4.65308e-08
6.86963e-06
9.48434e-09
6.86738e-06
3.66503e-09
6.86522e-06
3.98329e-08
6.85838e-06
4.15941e-08
6.85513e-06
4.68228e-08
6.85464e-06
7.21262e-08
6.85367e-06
9.233e-08
6.85304e-06
1.02898e-07
6.8553e-06
1.16932e-07
6.85934e-06
1.31933e-07
1.41784e-07
6.86395e-06
7.23367e-06
1.49724e-07
7.21849e-06
-7.95696e-08
7.23075e-06
1.06897e-08
7.22224e-06
1.98689e-08
7.21512e-06
-1.10103e-07
7.22297e-06
3.69332e-08
7.20891e-06
-8.08918e-09
7.20655e-06
-2.77207e-08
7.20672e-06
4.63593e-08
7.19579e-06
2.04091e-08
7.19202e-06
7.44241e-09
7.19061e-06
4.12396e-08
7.18449e-06
4.77136e-08
7.18067e-06
5.06425e-08
7.18038e-06
7.24183e-08
7.18026e-06
9.24484e-08
7.17984e-06
1.03317e-07
7.18203e-06
1.14746e-07
7.18631e-06
1.27651e-07
1.36798e-07
7.1913e-06
7.57852e-06
1.35434e-07
7.56466e-06
-6.57115e-08
7.57622e-06
-8.74384e-10
7.5678e-06
2.82889e-08
7.55687e-06
-9.9177e-08
7.56426e-06
2.95433e-08
7.55139e-06
4.78824e-09
7.54673e-06
-2.30672e-08
7.54778e-06
4.53178e-08
7.53782e-06
3.0368e-08
7.53263e-06
1.26296e-08
7.53157e-06
4.22967e-08
7.52636e-06
5.29278e-08
7.5222e-06
5.48003e-08
7.52195e-06
7.26677e-08
7.5225e-06
9.19008e-08
7.52254e-06
1.03278e-07
7.52467e-06
1.12617e-07
7.52906e-06
1.23257e-07
1.3148e-07
7.53438e-06
7.93981e-06
1.21439e-07
7.9269e-06
-5.28039e-08
7.93805e-06
-1.20212e-08
7.93049e-06
3.58445e-08
7.91581e-06
-8.44953e-08
7.92183e-06
2.35206e-08
7.9105e-06
1.61186e-08
7.90378e-06
-1.6346e-08
7.90506e-06
4.40399e-08
7.89631e-06
3.91115e-08
7.89002e-06
1.89199e-08
7.88893e-06
4.33913e-08
7.88467e-06
5.71919e-08
7.88044e-06
5.90294e-08
7.88014e-06
7.29629e-08
7.88117e-06
9.08685e-08
7.88181e-06
1.0264e-07
7.88397e-06
1.10457e-07
7.88838e-06
1.18853e-07
1.25908e-07
7.89395e-06
8.3183e-06
1.0782e-07
8.30606e-06
-4.05691e-08
8.31667e-06
-2.2628e-08
8.31072e-06
4.1797e-08
8.29271e-06
-6.64868e-08
8.29652e-06
1.9715e-08
8.28688e-06
2.57574e-08
8.27853e-06
-8.00138e-09
8.27942e-06
4.31512e-08
8.27199e-06
4.65387e-08
8.26497e-06
2.59416e-08
8.26355e-06
4.48122e-08
8.26017e-06
6.05756e-08
8.25611e-06
6.30851e-08
8.25576e-06
7.33201e-08
8.25712e-06
8.95071e-08
8.2584e-06
1.01355e-07
8.26071e-06
1.08147e-07
8.26507e-06
1.14491e-07
1.20182e-07
8.2708e-06
8.71478e-06
9.47024e-08
8.7033e-06
-2.90902e-08
8.71225e-06
-3.15785e-08
8.70877e-06
4.52743e-08
8.68828e-06
-4.59965e-08
8.68927e-06
1.87318e-08
8.68122e-06
3.38044e-08
8.67178e-06
1.43663e-09
8.67181e-06
4.31199e-08
8.66562e-06
5.27277e-08
8.65825e-06
3.33182e-08
8.65634e-06
4.67213e-08
8.6537e-06
6.32185e-08
8.65001e-06
6.67716e-08
8.64961e-06
7.37177e-08
8.65118e-06
8.79379e-08
8.6531e-06
9.94378e-08
8.65567e-06
1.05571e-07
8.66e-06
1.10168e-07
1.14404e-07
8.66577e-06
9.13008e-06
8.2242e-08
9.11935e-06
-1.83592e-08
9.12589e-06
-3.8118e-08
9.12468e-06
4.64823e-08
9.10318e-06
-2.44981e-08
9.10108e-06
2.08324e-08
9.0943e-06
4.05851e-08
9.08433e-06
1.14095e-08
9.08323e-06
4.42194e-08
9.07804e-06
5.79178e-08
9.07064e-06
4.07128e-08
9.06819e-06
4.91697e-08
9.06613e-06
6.52795e-08
9.06297e-06
6.99321e-08
9.06252e-06
7.41672e-08
9.06425e-06
8.62133e-08
9.06674e-06
9.69414e-08
9.06968e-06
1.02635e-07
9.07401e-06
1.05841e-07
1.0865e-07
9.07976e-06
9.56508e-06
7.06254e-08
9.5545e-06
-7.78144e-09
9.55786e-06
-4.14779e-08
9.55906e-06
4.52789e-08
9.53805e-06
-3.48454e-09
9.53297e-06
2.59095e-08
9.52702e-06
4.65339e-08
9.51695e-06
2.14848e-08
9.51465e-06
4.65183e-08
9.51015e-06
6.24123e-08
9.50299e-06
4.78803e-08
9.50004e-06
5.21154e-08
9.49842e-06
6.69025e-08
9.49587e-06
7.24819e-08
9.49537e-06
7.46654e-08
9.49723e-06
8.4356e-08
9.50023e-06
9.39423e-08
9.50359e-06
9.92695e-08
9.508e-06
1.01437e-07
1.0295e-07
9.51369e-06
1.00207e-05
6.00483e-08
1.00101e-05
2.85828e-09
1.00099e-05
-4.13541e-08
1.00129e-05
4.23634e-08
9.99363e-06
1.57537e-08
9.98594e-06
3.35922e-08
9.98036e-06
5.21194e-08
9.9705e-06
3.13393e-08
9.96703e-06
4.99909e-08
9.96296e-06
6.64778e-08
9.95616e-06
5.46865e-08
9.95282e-06
5.54555e-08
9.95151e-06
6.82094e-08
9.94958e-06
7.4418e-08
9.94909e-06
7.51514e-08
9.95105e-06
8.23985e-08
9.95446e-06
9.05245e-08
9.9583e-06
9.54349e-08
9.96286e-06
9.68721e-08
9.7289e-08
9.96853e-06
1.0498e-05
5.06929e-08
1.04879e-05
1.29532e-08
1.04839e-05
-3.74032e-08
1.04875e-05
3.88123e-08
1.04707e-05
3.25313e-08
1.04611e-05
4.32596e-08
1.04553e-05
5.78494e-08
1.04459e-05
4.07894e-08
1.04414e-05
5.4488e-08
1.04375e-05
7.03837e-08
1.04311e-05
6.10525e-08
1.04275e-05
5.90736e-08
1.04264e-05
6.93018e-08
1.0425e-05
7.57643e-08
1.04247e-05
7.5548e-08
1.04267e-05
8.03694e-08
1.04304e-05
8.67752e-08
1.04347e-05
9.11237e-08
1.04396e-05
9.2062e-08
9.16176e-08
1.04452e-05
1.0998e-05
4.26641e-08
1.09903e-05
2.06556e-08
1.09813e-05
-2.83757e-08
1.09843e-05
3.58274e-08
1.09704e-05
4.64548e-08
1.09594e-05
5.42879e-08
1.0953e-05
6.41574e-08
1.0944e-05
4.98274e-08
1.09387e-05
5.97545e-08
1.09347e-05
7.44034e-08
1.09288e-05
6.69468e-08
1.0925e-05
6.28548e-08
1.09241e-05
7.02629e-08
1.09233e-05
7.65215e-08
1.09231e-05
7.58129e-08
1.09252e-05
7.82717e-08
1.09292e-05
8.27817e-08
1.09339e-05
8.63641e-08
1.0939e-05
8.69353e-08
8.58719e-08
1.09448e-05
1.15219e-05
3.60845e-08
1.15142e-05
2.84318e-08
1.15033e-05
-1.75296e-08
1.1505e-05
3.41825e-08
1.14937e-05
5.77014e-08
1.14819e-05
6.61431e-08
1.14747e-05
7.13262e-08
1.14659e-05
5.85941e-08
1.14602e-05
6.55309e-08
1.14558e-05
7.87085e-08
1.14503e-05
7.24665e-08
1.14465e-05
6.66728e-08
1.14456e-05
7.11557e-08
1.14455e-05
7.66764e-08
1.14454e-05
7.59156e-08
1.14475e-05
7.60891e-08
1.14517e-05
7.86324e-08
1.14568e-05
8.12137e-08
1.14623e-05
8.14451e-08
7.99776e-08
1.14682e-05
1.20709e-05
3.0976e-08
1.20636e-05
3.58011e-08
1.20505e-05
-4.47909e-09
1.20506e-05
3.40562e-08
1.20418e-05
6.65154e-08
1.20297e-05
7.8288e-08
1.20215e-05
7.95426e-08
1.20128e-05
6.72907e-08
1.20066e-05
7.16522e-08
1.2002e-05
8.33017e-08
1.19967e-05
7.78153e-08
1.19929e-05
7.0433e-08
1.19921e-05
7.20025e-08
1.19925e-05
7.62866e-08
1.19927e-05
7.57084e-08
1.19949e-05
7.38413e-08
1.19992e-05
7.44056e-08
1.20046e-05
7.57541e-08
1.20105e-05
7.55754e-08
7.3855e-08
1.20166e-05
1.26463e-05
2.73144e-08
1.26396e-05
4.24659e-08
1.26252e-05
9.94987e-09
1.26228e-05
3.64068e-08
1.26157e-05
7.35903e-08
1.26039e-05
9.01299e-08
1.25946e-05
8.88839e-08
1.25857e-05
7.61315e-08
1.25793e-05
7.80618e-08
1.25745e-05
8.81061e-08
1.25692e-05
8.31431e-08
1.25654e-05
7.41755e-08
1.25646e-05
7.28058e-08
1.25654e-05
7.55045e-08
1.25662e-05
7.48987e-08
1.25685e-05
7.1587e-08
1.25728e-05
7.01209e-08
1.25784e-05
7.01122e-08
1.25846e-05
6.93335e-08
6.7422e-08
1.25911e-05
1.32492e-05
2.50068e-08
1.32443e-05
4.73991e-08
1.32283e-05
2.59447e-08
1.3223e-05
4.17027e-08
1.32168e-05
7.98414e-08
1.32056e-05
1.01292e-07
1.31952e-05
9.92709e-08
1.3186e-05
8.53063e-08
1.31793e-05
8.48097e-08
1.31743e-05
9.30518e-08
1.3169e-05
8.84809e-08
1.31652e-05
7.80082e-08
1.31643e-05
7.36489e-08
1.31654e-05
7.44345e-08
1.3167e-05
7.33202e-08
1.31693e-05
6.92906e-08
1.31737e-05
6.56692e-08
1.31793e-05
6.45198e-08
1.31859e-05
6.27178e-08
6.06067e-08
1.31928e-05
1.38812e-05
2.39312e-08
1.38771e-05
5.15615e-08
1.38608e-05
4.22238e-08
1.38527e-05
4.98132e-08
1.38464e-05
8.61241e-08
1.3836e-05
1.11719e-07
1.38248e-05
1.10474e-07
1.38151e-05
9.50236e-08
1.38079e-05
9.19567e-08
1.38028e-05
9.81626e-08
1.37975e-05
9.37874e-08
1.37935e-05
8.19989e-08
1.37925e-05
7.4679e-08
1.37938e-05
7.31447e-08
1.3796e-05
7.10683e-08
1.37986e-05
6.67336e-08
1.38033e-05
6.08959e-08
1.38087e-05
5.91827e-08
1.38157e-05
5.57221e-08
5.33629e-08
1.38229e-05
1.45437e-05
2.39237e-08
1.45391e-05
5.61067e-08
1.45239e-05
5.7473e-08
1.45131e-05
6.05486e-08
1.45062e-05
9.30501e-08
1.44963e-05
1.21663e-07
1.44846e-05
1.22154e-07
1.44741e-05
1.0554e-07
1.44665e-05
9.95377e-08
1.44611e-05
1.03538e-07
1.44559e-05
9.90265e-08
1.44517e-05
8.61806e-08
1.44504e-05
7.59813e-08
1.44518e-05
7.17856e-08
1.44545e-05
6.83618e-08
1.44577e-05
6.35338e-08
1.44624e-05
5.61205e-08
1.44681e-05
5.35291e-08
1.44751e-05
4.87284e-08
4.55757e-08
1.44829e-05
1.5238e-05
2.48095e-08
1.52337e-05
6.04312e-08
1.52188e-05
7.23236e-08
1.52057e-05
7.36781e-08
1.51977e-05
1.01039e-07
1.51879e-05
1.31441e-07
1.5176e-05
1.34082e-07
1.51646e-05
1.1696e-07
1.51564e-05
1.07722e-07
1.51507e-05
1.09244e-07
1.51455e-05
1.04246e-07
1.51411e-05
9.0547e-08
1.51395e-05
7.76276e-08
1.51407e-05
7.05414e-08
1.51437e-05
6.53404e-08
1.51477e-05
5.95565e-08
1.51522e-05
5.16228e-08
1.51588e-05
4.68832e-08
1.51656e-05
4.19916e-08
3.73674e-08
1.51738e-05
1.59657e-05
2.6465e-08
1.59608e-05
6.52597e-08
1.59466e-05
8.65597e-08
1.59319e-05
8.83806e-08
1.59224e-05
1.10564e-07
1.59125e-05
1.41311e-07
1.59003e-05
1.46263e-07
1.58881e-05
1.29206e-07
1.5879e-05
1.16774e-07
1.58729e-05
1.15382e-07
1.58676e-05
1.09558e-07
1.58631e-05
9.50797e-08
1.5861e-05
7.97133e-08
1.5862e-05
6.95425e-08
1.58652e-05
6.21312e-08
1.58697e-05
5.505e-08
1.58745e-05
4.68472e-08
1.58814e-05
3.99751e-08
1.58892e-05
3.41789e-08
2.97869e-08
1.58968e-05
1.67283e-05
2.87741e-08
1.6722e-05
7.1591e-08
1.6709e-05
9.94969e-08
1.66932e-05
1.04169e-07
1.66819e-05
1.21926e-07
1.66716e-05
1.51565e-07
1.66591e-05
1.58777e-07
1.66461e-05
1.42219e-07
1.6636e-05
1.26866e-07
1.66292e-05
1.22169e-07
1.66237e-05
1.15103e-07
1.66189e-05
9.98266e-08
1.66163e-05
8.23003e-08
1.66169e-05
6.89302e-08
1.66202e-05
5.89131e-08
1.66249e-05
5.03193e-08
1.66305e-05
4.12566e-08
1.66375e-05
3.29198e-08
1.66457e-05
2.59887e-08
2.12579e-08
1.66543e-05
1.75275e-05
3.16109e-08
1.75221e-05
7.70567e-08
1.75081e-05
1.13487e-07
1.74911e-05
1.21123e-07
1.74779e-05
1.35168e-07
1.74669e-05
1.62546e-07
1.7454e-05
1.71698e-07
1.74401e-05
1.56046e-07
1.74289e-05
1.38094e-07
1.74212e-05
1.29879e-07
1.74152e-05
1.21099e-07
1.74101e-05
1.04932e-07
1.7407e-05
8.54085e-08
1.7407e-05
6.89372e-08
1.741e-05
5.58962e-08
1.7415e-05
4.53385e-08
1.74213e-05
3.49491e-08
1.74288e-05
2.54482e-08
1.74374e-05
1.73611e-08
1.16179e-08
1.7447e-05
1.8365e-05
3.49154e-08
1.83583e-05
8.38161e-08
1.8345e-05
1.26789e-07
1.83272e-05
1.38899e-07
1.83121e-05
1.50236e-07
1.83001e-05
1.74613e-07
1.82866e-05
1.8517e-07
1.82719e-05
1.70751e-07
1.82594e-05
1.50595e-07
1.82505e-05
1.38744e-07
1.82438e-05
1.27868e-07
1.82381e-05
1.10631e-07
1.82344e-05
8.91035e-08
1.82335e-05
6.98263e-08
1.82361e-05
5.33011e-08
1.82412e-05
4.0167e-08
1.82482e-05
2.80298e-08
1.82564e-05
1.72044e-08
1.82658e-05
7.99798e-09
1.06315e-09
1.82763e-05
1.92427e-05
3.8642e-08
1.92355e-05
9.10241e-08
1.92217e-05
1.40541e-07
1.92032e-05
1.57377e-07
1.91865e-05
1.67008e-07
1.9173e-05
1.88086e-07
1.91588e-05
1.9938e-07
1.91431e-05
1.86393e-07
1.91292e-05
1.64568e-07