/*--------------------------------*- C++ -*----------------------------------*\
| =========                 |                                                 |
| \\      /  F ield         | OpenFOAM: The Open Source CFD Toolbox           |
|  \\    /   O peration     | Version:  v2012                                 |
|   \\  /    A nd           | Website:  www.openfoam.com                      |
|    \\/     M anipulation  |                                                 |
\*---------------------------------------------------------------------------*/
FoamFile
{
    version     2.0;
    format      ascii;
    class       volVectorField;
    location    "0.05";
    object      U;
}
// * * * * * * * * * * * * * * * * * * * * * * * * * * * * * * * * * * * * * //

dimensions      [0 1 -1 0 0 0 0];


internalField   nonuniform List<vector> 
17600
(
(0.999798 -3.92519e-05 0)
(1.00074 0.000168969 0)
(0.997662 -0.000525797 0)
(1.00619 0.00137243 0)
(0.98472 -0.00294971 0)
(1.03142 0.00487517 0)
(0.94303 -0.00619913 0)
(1.0851 0.00394273 0)
(0.889217 0.000656145 0)
(1.11701 -0.00697183 0)
(0.878604 0.0083739 0)
(1.10252 -0.00571492 0)
(0.87915 0.00328341 0)
(1.09939 -0.00389882 0)
(0.871092 0.00470751 0)
(1.09509 -0.00319573 0)
(0.859995 0.00353307 0)
(1.09315 -0.00312513 0)
(0.844159 0.00389815 0)
(1.09125 -0.0021067 0)
(0.999808 -4.23603e-05 0)
(1.00069 0.000182119 0)
(0.99785 -0.00056375 0)
(1.00559 0.00147106 0)
(0.986506 -0.00316854 0)
(1.02757 0.00524223 0)
(0.952437 -0.00679222 0)
(1.07328 0.00449016 0)
(0.912467 0.000118485 0)
(1.09533 -0.00665887 0)
(0.90387 0.00834146 0)
(1.07326 -0.0054031 0)
(0.909851 0.00302746 0)
(1.06043 -0.0035854 0)
(0.915619 0.00467528 0)
(1.04155 -0.00305839 0)
(0.926228 0.00378238 0)
(1.01657 -0.00351448 0)
(0.943625 0.00527266 0)
(0.97875 -0.00350814 0)
(0.999825 -4.50653e-05 0)
(1.0006 0.000194028 0)
(0.99818 -0.000596786 0)
(1.00452 0.0015572 0)
(0.98951 -0.00335411 0)
(1.02084 0.00556701 0)
(0.966839 -0.00727021 0)
(1.05237 0.00500661 0)
(0.945883 -0.000238579 0)
(1.06201 -0.00635964 0)
(0.941574 0.00840581 0)
(1.04017 -0.00523562 0)
(0.950004 0.00297298 0)
(1.02292 -0.0034518 0)
(0.960005 0.00476495 0)
(1.00628 -0.00296662 0)
(0.969814 0.00388334 0)
(0.990037 -0.00324603 0)
(0.97701 0.00528744 0)
(0.97622 -0.00191699 0)
(0.999845 -4.69697e-05 0)
(1.0005 0.000202385 0)
(0.998552 -0.000617809 0)
(1.00334 0.00160801 0)
(0.992746 -0.00345643 0)
(1.01348 0.00571814 0)
(0.980915 -0.00749233 0)
(1.03 0.00518538 0)
(0.974688 -0.000319001 0)
(1.03101 -0.00621231 0)
(0.972151 0.00851573 0)
(1.0182 -0.00515588 0)
(0.977836 0.00310554 0)
(1.00463 -0.00345436 0)
(0.983844 0.00490971 0)
(0.997612 -0.00293321 0)
(0.986367 0.00398148 0)
(0.990962 -0.00303392 0)
(0.985841 0.00520585 0)
(0.985746 -0.000607218 0)
(0.999863 -4.83898e-05 0)
(1.00041 0.000208263 0)
(0.998871 -0.000630417 0)
(1.00234 0.001634 0)
(0.995361 -0.00349979 0)
(1.00752 0.00574917 0)
(0.991114 -0.00753861 0)
(1.01278 0.00513615 0)
(0.992217 -0.000264065 0)
(1.01094 -0.00614188 0)
(0.988534 0.00852818 0)
(1.00798 -0.00505264 0)
(0.991048 0.00319486 0)
(0.998726 -0.00342676 0)
(0.99338 0.00493419 0)
(0.997369 -0.00285296 0)
(0.992443 0.0039923 0)
(0.993497 -0.00282332 0)
(0.990176 0.00513494 0)
(0.989436 0.000509223 0)
(0.999876 -4.94137e-05 0)
(1.00035 0.000212204 0)
(0.999091 -0.000636533 0)
(1.00167 0.00164215 0)
(0.997034 -0.00350155 0)
(1.00373 0.00570981 0)
(0.996881 -0.00747684 0)
(1.00264 0.0050037 0)
(1.00007 -0.000176497 0)
(1.00145 -0.00606747 0)
(0.994492 0.00842128 0)
(1.00413 -0.00491951 0)
(0.995859 0.00319395 0)
(0.996943 -0.00333583 0)
(0.996545 0.00482653 0)
(0.997583 -0.0027014 0)
(0.994692 0.00390292 0)
(0.994321 -0.0025135 0)
(0.992104 0.0050135 0)
(0.990797 0.00154206 0)
(0.999883 -5.0147e-05 0)
(1.00031 0.00021482 0)
(0.999217 -0.000638238 0)
(1.0013 0.00163874 0)
(0.997912 -0.00347633 0)
(1.00179 0.00563083 0)
(0.999499 -0.0073497 0)
(0.997934 0.00484852 0)
(1.00263 -8.79469e-05 0)
(0.99812 -0.00597423 0)
(0.995782 0.0082537 0)
(1.00273 -0.00478173 0)
(0.997256 0.00315232 0)
(0.996287 -0.00319937 0)
(0.997297 0.00464695 0)
(0.997501 -0.0024796 0)
(0.995284 0.00373182 0)
(0.994509 -0.00207789 0)
(0.992668 0.00479752 0)
(0.991392 0.00253837 0)
(0.999888 -5.07117e-05 0)
(1.00029 0.00021669 0)
(0.999281 -0.000637449 0)
(1.00112 0.00162906 0)
(0.99831 -0.00343621 0)
(1.00095 0.00553213 0)
(1.00047 -0.00718666 0)
(0.996195 0.00468539 0)
(1.00314 -6.57775e-07 0)
(0.997311 -0.00587282 0)
(0.995782 0.00806949 0)
(1.00217 -0.00464597 0)
(0.997564 0.00310096 0)
(0.996067 -0.00303715 0)
(0.997338 0.00444365 0)
(0.99738 -0.00221315 0)
(0.995338 0.00351206 0)
(0.994542 -0.00156658 0)
(0.992844 0.00452655 0)
(0.9917 0.00347227 0)
(0.999891 -5.11823e-05 0)
(1.00028 0.000218145 0)
(0.999315 -0.000635245 0)
(1.00103 0.00161595 0)
(0.998483 -0.00338786 0)
(1.00062 0.00542292 0)
(1.00078 -0.00700374 0)
(0.995704 0.00451582 0)
(1.00308 8.83013e-05 0)
(0.997257 -0.00576917 0)
(0.995656 0.00788027 0)
(1.00192 -0.00450335 0)
(0.997613 0.0030362 0)
(0.99603 -0.00284944 0)
(0.997284 0.0042212 0)
(0.997298 -0.00191178 0)
(0.995317 0.00325733 0)
(0.994556 -0.00101428 0)
(0.993004 0.0042338 0)
(0.991952 0.00431071 0)
(0.999893 -5.15902e-05 0)
(1.00027 0.000219326 0)
(0.999337 -0.000632062 0)
(1.00098 0.0016005 0)
(0.998572 -0.00333388 0)
(1.00048 0.0053058 0)
(1.00086 -0.0068071 0)
(0.995637 0.00433768 0)
(1.00292 0.000182443 0)
(0.997371 -0.00566569 0)
(0.995603 0.00768683 0)
(1.00177 -0.00434803 0)
(0.997631 0.00294934 0)
(0.996051 -0.00263151 0)
(0.997267 0.00397194 0)
(0.997249 -0.00158132 0)
(0.995323 0.00298257 0)
(0.994584 -0.000443388 0)
(0.993203 0.00394114 0)
(0.992221 0.0050183 0)
(0.999894 -5.19446e-05 0)
(1.00026 0.000220274 0)
(0.999355 -0.000628031 0)
(1.00094 0.00158299 0)
(0.998637 -0.00327509 0)
(1.00039 0.0051812 0)
(1.00089 -0.00659874 0)
(0.995692 0.00414938 0)
(1.00275 0.00028396 0)
(0.997514 -0.00556384 0)
(0.995599 0.00748974 0)
(1.00166 -0.00418009 0)
(0.997657 0.00283996 0)
(0.996088 -0.00238217 0)
(0.997276 0.00368908 0)
(0.997218 -0.00121429 0)
(0.995353 0.00268321 0)
(0.994625 0.00014639 0)
(0.993428 0.00369081 0)
(0.992511 0.00557979 0)
(0.999896 -5.22448e-05 0)
(1.00026 0.00022099 0)
(0.999372 -0.000623159 0)
(1.00091 0.00156346 0)
(0.998695 -0.00321169 0)
(1.00032 0.00504914 0)
(1.00089 -0.00637937 0)
(0.995781 0.00395074 0)
(1.00258 0.000393233 0)
(0.997665 -0.00546343 0)
(0.995609 0.00728824 0)
(1.00157 -0.00399837 0)
(0.99769 0.00270761 0)
(0.996126 -0.00209987 0)
(0.997298 0.00337006 0)
(0.997192 -0.000809712 0)
(0.995399 0.00236798 0)
(0.994677 0.000733417 0)
(0.993664 0.00351276 0)
(0.992815 0.00598703 0)
(0.999898 -5.24871e-05 0)
(1.00025 0.000221462 0)
(0.999389 -0.000617417 0)
(1.00087 0.00154186 0)
(0.998753 -0.00314364 0)
(1.00026 0.00490961 0)
(1.0009 -0.0061493 0)
(0.995882 0.0037421 0)
(1.0024 0.000509846 0)
(0.997821 -0.00536363 0)
(0.995622 0.00708089 0)
(1.00147 -0.0038009 0)
(0.997727 0.00255161 0)
(0.996162 -0.00178777 0)
(0.997326 0.00302515 0)
(0.997168 -0.000387187 0)
(0.995456 0.00206615 0)
(0.994739 0.00127357 0)
(0.993901 0.00341604 0)
(0.99313 0.00623527 0)
(0.9999 -5.26667e-05 0)
(1.00024 0.000221672 0)
(0.999407 -0.000610766 0)
(1.00083 0.00151813 0)
(0.998811 -0.0030709 0)
(1.00019 0.00476267 0)
(1.00089 -0.00590883 0)
(0.99599 0.00352405 0)
(1.00222 0.000633085 0)
(0.997981 -0.00526361 0)
(0.995636 0.00686682 0)
(1.00137 -0.00358697 0)
(0.997768 0.00237292 0)
(0.996193 -0.00145109 0)
(0.997363 0.0026676 0)
(0.997143 3.38235e-05 0)
(0.995522 0.00179309 0)
(0.994813 0.00174174 0)
(0.994136 0.00341646 0)
(0.993455 0.00634408 0)
(0.999902 -5.27785e-05 0)
(1.00024 0.000221606 0)
(0.999426 -0.000603169 0)
(1.00079 0.00149222 0)
(0.998869 -0.00299342 0)
(1.00013 0.00460847 0)
(1.00089 -0.00565838 0)
(0.996105 0.00329739 0)
(1.00203 0.000761731 0)
(0.998143 -0.00516172 0)
(0.995654 0.00664419 0)
(1.00127 -0.00335388 0)
(0.997817 0.00216784 0)
(0.996217 -0.001087 0)
(0.997406 0.00229898 0)
(0.997118 0.000451086 0)
(0.995594 0.00157521 0)
(0.994902 0.00212061 0)
(0.994363 0.00351489 0)
(0.993784 0.00634813 0)
(0.999904 -5.28171e-05 0)
(1.00023 0.000221247 0)
(0.999444 -0.00059459 0)
(1.00075 0.0014641 0)
(0.998927 -0.00291121 0)
(1.00007 0.0044472 0)
(1.00088 -0.00539854 0)
(0.996225 0.00306322 0)
(1.00184 0.000894116 0)
(0.998306 -0.00505635 0)
(0.995676 0.00641223 0)
(1.00116 -0.00310091 0)
(0.997876 0.00193718 0)
(0.996232 -0.000699834 0)
(0.997458 0.00192549 0)
(0.997098 0.000854944 0)
(0.99567 0.00143371 0)
(0.995009 0.00239875 0)
(0.994582 0.00369408 0)
(0.994111 0.00629139 0)
(0.999906 -5.27773e-05 0)
(1.00022 0.000220578 0)
(0.999464 -0.000584995 0)
(1.00071 0.00143374 0)
(0.998985 -0.0028243 0)
(1.00001 0.00427916 0)
(1.00086 -0.00512999 0)
(0.996349 0.00282268 0)
(1.00165 0.00102912 0)
(0.998467 -0.00494651 0)
(0.995704 0.00616908 0)
(1.00105 -0.00282843 0)
(0.997945 0.0016874 0)
(0.99624 -0.000306382 0)
(0.997516 0.00156639 0)
(0.997085 0.00121419 0)
(0.995743 0.00137487 0)
(0.995136 0.00257422 0)
(0.994795 0.00391864 0)
(0.99443 0.00621326 0)
(0.999908 -5.26533e-05 0)
(1.00021 0.000219586 0)
(0.999483 -0.000574357 0)
(1.00067 0.00140112 0)
(0.999043 -0.00273274 0)
(0.999949 0.00410473 0)
(1.00085 -0.00485361 0)
(0.996479 0.00257724 0)
(1.00145 0.00116473 0)
(0.998624 -0.00482979 0)
(0.995741 0.00591222 0)
(1.00092 -0.00253438 0)
(0.998025 0.00141721 0)
(0.996241 9.67192e-05 0)
(0.997579 0.00124214 0)
(0.997084 0.00151126 0)
(0.995811 0.00140338 0)
(0.995281 0.00266213 0)
(0.995005 0.00415029 0)
(0.994735 0.00614947 0)
(0.999911 -5.24396e-05 0)
(1.0002 0.000218255 0)
(0.999503 -0.000562648 0)
(1.00063 0.00136627 0)
(0.999101 -0.00263665 0)
(0.999892 0.00392439 0)
(1.00083 -0.00457045 0)
(0.996612 0.00232872 0)
(1.00126 0.00129825 0)
(0.998777 -0.00470345 0)
(0.995788 0.0056415 0)
(1.00079 -0.00222008 0)
(0.998117 0.00113094 0)
(0.996238 0.000502305 0)
(0.997641 0.000965462 0)
(0.997099 0.00173445 0)
(0.995872 0.0015191 0)
(0.995442 0.00268795 0)
(0.995218 0.00435464 0)
(0.995021 0.00612613 0)
(0.999913 -5.21307e-05 0)
(1.0002 0.000216573 0)
(0.999524 -0.000549851 0)
(1.00059 0.00132919 0)
(0.999158 -0.00253619 0)
(0.999838 0.00373871 0)
(1.0008 -0.00428168 0)
(0.99675 0.00207891 0)
(1.00106 0.00142761 0)
(0.998923 -0.00456526 0)
(0.995846 0.00535506 0)
(1.00065 -0.00188664 0)
(0.99822 0.000837444 0)
(0.996234 0.000885486 0)
(0.997698 0.000747459 0)
(0.997134 0.00187922 0)
(0.995925 0.00171169 0)
(0.995613 0.00268124 0)
(0.99544 0.00450194 0)
(0.995286 0.00615143 0)
(0.999916 -5.17208e-05 0)
(1.00019 0.000214527 0)
(0.999544 -0.000535949 0)
(1.00055 0.00128994 0)
(0.999214 -0.00243158 0)
(0.999786 0.00354835 0)
(1.00078 -0.00398869 0)
(0.996891 0.00182996 0)
(1.00087 0.00155032 0)
(0.999062 -0.00441331 0)
(0.995916 0.0050525 0)
(1.00049 -0.00153695 0)
(0.998332 0.000544246 0)
(0.996232 0.0012367 0)
(0.997747 0.000598345 0)
(0.997192 0.00194644 0)
(0.995971 0.00196208 0)
(0.995786 0.00267508 0)
(0.995675 0.00457417 0)
(0.995533 0.00621125 0)
(0.999918 -5.12046e-05 0)
(1.00018 0.000212108 0)
(0.999565 -0.000520938 0)
(1.0005 0.00124858 0)
(0.999269 -0.00232306 0)
(0.999737 0.0033541 0)
(1.00074 -0.00369297 0)
(0.997035 0.00158413 0)
(1.00068 0.00166384 0)
(0.999193 -0.00424571 0)
(0.995998 0.00473417 0)
(1.00033 -0.00117482 0)
(0.998451 0.000258705 0)
(0.996236 0.00155061 0)
(0.997783 0.000520522 0)
(0.997275 0.00193449 0)
(0.996016 0.00223699 0)
(0.995953 0.00269284 0)
(0.995926 0.00456451 0)
(0.995768 0.0062734 0)
(0.999921 -5.05767e-05 0)
(1.00017 0.000209307 0)
(0.999586 -0.000504818 0)
(1.00046 0.00120521 0)
(0.999323 -0.00221097 0)
(0.999691 0.00315686 0)
(1.00071 -0.00339625 0)
(0.997182 0.00134395 0)
(1.0005 0.00176525 0)
(0.999313 -0.00406009 0)
(0.996094 0.00439969 0)
(1.00016 -0.000803716 0)
(0.998575 -8.73847e-06 0)
(0.996251 0.00181504 0)
(0.997803 0.000520828 0)
(0.997381 0.00185838 0)
(0.996067 0.0025073 0)
(0.996106 0.00275233 0)
(0.996191 0.00448183 0)
(0.996001 0.00630372 0)
(0.999924 -4.98323e-05 0)
(1.00016 0.00020612 0)
(0.999607 -0.000487599 0)
(1.00042 0.00115994 0)
(0.999375 -0.00209568 0)
(0.999649 0.00295758 0)
(1.00067 -0.00310026 0)
(0.997331 0.00111174 0)
(1.00032 0.00185244 0)
(0.999421 -0.00385618 0)
(0.996204 0.00405272 0)
(0.999985 -0.000432347 0)
(0.9987 -0.000246797 0)
(0.99628 0.00201772 0)
(0.997804 0.000596967 0)
(0.997507 0.00174209 0)
(0.996131 0.00275248 0)
(0.996239 0.00286842 0)
(0.996463 0.00435301 0)
(0.996243 0.00627656 0)
(0.999927 -4.89667e-05 0)
(1.00015 0.000202544 0)
(0.999628 -0.0004693 0)
(1.00038 0.00111293 0)
(0.999426 -0.00197762 0)
(0.999611 0.00275737 0)
(1.00063 -0.00280696 0)
(0.997482 0.00089019 0)
(1.00015 0.00192287 0)
(0.999517 -0.00363276 0)
(0.996328 0.00369458 0)
(0.999803 -6.56995e-05 0)
(0.998823 -0.000451166 0)
(0.996327 0.00215543 0)
(0.997786 0.000741876 0)
(0.997649 0.00160575 0)
(0.996215 0.00294725 0)
(0.99635 0.00303624 0)
(0.996732 0.00420771 0)
(0.996502 0.00617342 0)
(0.99993 -4.7976e-05 0)
(1.00014 0.00019858 0)
(0.999649 -0.000449955 0)
(1.00034 0.00106435 0)
(0.999474 -0.00185732 0)
(0.999577 0.00255741 0)
(1.00058 -0.00251838 0)
(0.997633 0.000681838 0)
(0.999981 0.0019745 0)
(0.999599 -0.00339002 0)
(0.996466 0.00333021 0)
(0.99962 0.00028127 0)
(0.998939 -0.000610464 0)
(0.996396 0.00222723 0)
(0.997752 0.000945067 0)
(0.997797 0.001472 0)
(0.996326 0.00307487 0)
(0.99644 0.00324065 0)
(0.996987 0.00407779 0)
(0.996782 0.00599163 0)
(0.999933 -4.68565e-05 0)
(1.00013 0.000194233 0)
(0.99967 -0.000429603 0)
(1.0003 0.00101441 0)
(0.99952 -0.00173531 0)
(0.999547 0.00235891 0)
(1.00053 -0.00223643 0)
(0.997784 0.000488841 0)
(0.999825 0.00200619 0)
(0.999667 -0.0031296 0)
(0.996616 0.00296448 0)
(0.999436 0.000612259 0)
(0.999047 -0.000717326 0)
(0.996489 0.002233 0)
(0.997703 0.00118645 0)
(0.997945 0.00136172 0)
(0.996467 0.00313119 0)
(0.996517 0.00346158 0)
(0.997217 0.00399112 0)
(0.997082 0.00574607 0)
(0.999936 -4.56059e-05 0)
(1.00012 0.000189513 0)
(0.999691 -0.000408303 0)
(1.00026 0.00096335 0)
(0.999564 -0.00161221 0)
(0.999522 0.00216322 0)
(1.00048 -0.00196329 0)
(0.997934 0.000313681 0)
(0.999679 0.0020164 0)
(0.999719 -0.00285254 0)
(0.996779 0.00260196 0)
(0.999257 0.000921747 0)
(0.99914 -0.000768543 0)
(0.996607 0.00217845 0)
(0.997646 0.00144788 0)
(0.998084 0.00129201 0)
(0.996641 0.00311918 0)
(0.996588 0.00367124 0)
(0.997412 0.00396003 0)
(0.997394 0.005462 0)
(0.999939 -4.42224e-05 0)
(1.00011 0.000184434 0)
(0.999711 -0.000386123 0)
(1.00023 0.000911441 0)
(0.999604 -0.00148868 0)
(0.999501 0.00197166 0)
(1.00042 -0.00170087 0)
(0.998081 0.000158144 0)
(0.999546 0.002005 0)
(0.999756 -0.00256198 0)
(0.996953 0.00225028 0)
(0.999085 0.00118989 0)
(0.999216 -0.000761618 0)
(0.99675 0.00207576 0)
(0.997588 0.00171007 0)
(0.998206 0.00127233 0)
(0.996844 0.00304951 0)
(0.996664 0.0038446 0)
(0.997567 0.00398444 0)
(0.997704 0.0051729 0)
(0.999942 -4.27053e-05 0)
(1.0001 0.000179015 0)
(0.999731 -0.000363144 0)
(1.00019 0.00085898 0)
(0.999642 -0.00136543 0)
(0.999485 0.00178559 0)
(1.00036 -0.00145101 0)
(0.998226 2.37216e-05 0)
(0.999425 0.00197242 0)
(0.999777 -0.00226178 0)
(0.997136 0.00191539 0)
(0.998924 0.00141613 0)
(0.999273 -0.000697111 0)
(0.996916 0.00193761 0)
(0.997534 0.00195384 0)
(0.998307 0.00130678 0)
(0.99707 0.00294076 0)
(0.996757 0.00396512 0)
(0.997685 0.00405296 0)
(0.997997 0.00491205 0)
(0.999945 -4.10553e-05 0)
(1.00009 0.000173284 0)
(0.99975 -0.000339466 0)
(1.00016 0.000806297 0)
(0.999676 -0.0012432 0)
(0.999474 0.00160638 0)
(1.0003 -0.00121553 0)
(0.998366 -8.83269e-05 0)
(0.999319 0.00191955 0)
(0.999783 -0.0019561 0)
(0.997325 0.00160381 0)
(0.998778 0.0015965 0)
(0.999308 -0.000579882 0)
(0.997101 0.00177847 0)
(0.997492 0.00216367 0)
(0.998383 0.00139336 0)
(0.997311 0.00281357 0)
(0.996873 0.00402406 0)
(0.997772 0.00414427 0)
(0.998258 0.00470323 0)
(0.999948 -3.92745e-05 0)
(1.00009 0.000167269 0)
(0.999769 -0.000315196 0)
(1.00013 0.00075374 0)
(0.999708 -0.00112272 0)
(0.999468 0.00143529 0)
(1.00024 -0.000995812 0)
(0.9985 -0.000177537 0)
(0.999227 0.0018483 0)
(0.999775 -0.00164982 0)
(0.997516 0.00132116 0)
(0.998652 0.00173008 0)
(0.999322 -0.000419762 0)
(0.997301 0.0016122 0)
(0.997469 0.00232775 0)
(0.998433 0.00152371 0)
(0.997557 0.0026865 0)
(0.997018 0.00402063 0)
(0.997839 0.00423388 0)
(0.998476 0.00455658 0)
(0.999952 -3.73662e-05 0)
(1.00008 0.000161009 0)
(0.999787 -0.000290461 0)
(1.0001 0.000701682 0)
(0.999735 -0.00100478 0)
(0.999466 0.00127358 0)
(1.00018 -0.000793216 0)
(0.998628 -0.000243626 0)
(0.999151 0.00176094 0)
(0.999754 -0.00134833 0)
(0.997707 0.00107246 0)
(0.998547 0.00181628 0)
(0.999316 -0.000226044 0)
(0.997508 0.00145368 0)
(0.99747 0.00244 0)
(0.998461 0.00168539 0)
(0.997797 0.00257532 0)
(0.997192 0.00396198 0)
(0.997897 0.00430112 0)
(0.998648 0.00446865 0)
(0.999955 -3.53355e-05 0)
(1.00007 0.000154547 0)
(0.999804 -0.000265392 0)
(1.00007 0.000650501 0)
(0.99976 -0.000890102 0)
(0.999468 0.00112232 0)
(1.00012 -0.000608536 0)
(0.998748 -0.000287345 0)
(0.999091 0.00166082 0)
(0.999723 -0.00105659 0)
(0.997895 0.000861369 0)
(0.998466 0.00185766 0)
(0.999292 -1.07537e-05 0)
(0.997718 0.00131473 0)
(0.997498 0.00249926 0)
(0.998471 0.00186311 0)
(0.998024 0.00249118 0)
(0.997391 0.00386041 0)
(0.99796 0.00433163 0)
(0.998774 0.00442456 0)
(0.999958 -3.31893e-05 0)
(1.00006 0.000147933 0)
(0.99982 -0.000240139 0)
(1.00004 0.000600595 0)
(0.999781 -0.00077943 0)
(0.999475 0.000982514 0)
(1.00006 -0.000442453 0)
(0.99886 -0.000309503 0)
(0.999047 0.00155074 0)
(0.999682 -0.000778346 0)
(0.998077 0.000690948 0)
(0.998411 0.00185896 0)
(0.999254 0.000218148 0)
(0.997923 0.00120551 0)
(0.997557 0.00250966 0)
(0.99847 0.00204108 0)
(0.998229 0.00243978 0)
(0.99761 0.00373075 0)
(0.998037 0.0043186 0)
(0.998863 0.0044035 0)
(0.999961 -3.09357e-05 0)
(1.00005 0.000141221 0)
(0.999836 -0.00021485 0)
(1.00002 0.000552343 0)
(0.999799 -0.000673401 0)
(0.999484 0.000854879 0)
(0.999999 -0.000295089 0)
(0.998962 -0.000311718 0)
(0.999018 0.00143437 0)
(0.999636 -0.000518566 0)
(0.998248 0.000561737 0)
(0.998382 0.0018267 0)
(0.999206 0.000448632 0)
(0.998118 0.00113154 0)
(0.997644 0.00247888 0)
(0.998464 0.00220486 0)
(0.998409 0.00242143 0)
(0.997841 0.00358794 0)
(0.998134 0.00426253 0)
(0.998927 0.00438474 0)
(0.999964 -2.8585e-05 0)
(1.00004 0.000134471 0)
(0.99985 -0.000189688 0)
(0.999998 0.000506129 0)
(0.999814 -0.000572642 0)
(0.999497 0.000740017 0)
(0.999944 -0.000166083 0)
(0.999056 -0.000297241 0)
(0.999004 0.00131677 0)
(0.999585 -0.000282422 0)
(0.998408 0.000471333 0)
(0.998378 0.00176757 0)
(0.999152 0.000665561 0)
(0.998297 0.00109352 0)
(0.997757 0.00241687 0)
(0.998462 0.00234293 0)
(0.998561 0.00243186 0)
(0.998074 0.00344498 0)
(0.998252 0.00416944 0)
(0.998979 0.004352 0)
(0.999967 -2.61488e-05 0)
(1.00004 0.000127748 0)
(0.999864 -0.000164811 0)
(0.999979 0.000462316 0)
(0.999826 -0.000477687 0)
(0.999512 0.000638359 0)
(0.999893 -5.51798e-05 0)
(0.999139 -0.000266656 0)
(0.999003 0.00120031 0)
(0.999534 -7.13109e-05 0)
(0.998554 0.000418502 0)
(0.998398 0.0016901 0)
(0.999099 0.000862403 0)
(0.998457 0.00109069 0)
(0.997891 0.00233538 0)
(0.99847 0.00244803 0)
(0.998688 0.0024636 0)
(0.9983 0.00331175 0)
(0.998391 0.0040486 0)
(0.99903 0.00429565 0)
(0.99997 -2.36404e-05 0)
(1.00003 0.000121118 0)
(0.999876 -0.000140379 0)
(0.999962 0.000421226 0)
(0.999835 -0.000388935 0)
(0.99953 0.00054992 0)
(0.999846 3.88884e-05 0)
(0.999213 -0.000221951 0)
(0.999014 0.00108887 0)
(0.999485 0.000113923 0)
(0.998685 0.000399395 0)
(0.998439 0.00160273 0)
(0.999051 0.00103331 0)
(0.998598 0.00111837 0)
(0.998041 0.00224543 0)
(0.998492 0.00251676 0)
(0.998791 0.00250718 0)
(0.998514 0.00319429 0)
(0.998546 0.00391018 0)
(0.999088 0.00421264 0)
(0.999973 -2.10743e-05 0)
(1.00002 0.000114651 0)
(0.999887 -0.000116545 0)
(0.999948 0.000383154 0)
(0.999842 -0.000306668 0)
(0.999549 0.000474368 0)
(0.999804 0.000117809 0)
(0.999278 -0.000167206 0)
(0.999035 0.000986211 0)
(0.999439 0.000272696 0)
(0.9988 0.000408096 0)
(0.998497 0.00151236 0)
(0.999012 0.00117442 0)
(0.998719 0.0011696 0)
(0.998201 0.00215648 0)
(0.998532 0.00254962 0)
(0.998877 0.00255296 0)
(0.998711 0.00309505 0)
(0.99871 0.00376369 0)
(0.999159 0.00410514 0)
(0.999975 -1.84663e-05 0)
(1.00002 0.000108416 0)
(0.999897 -9.34573e-05 0)
(0.999935 0.000348351 0)
(0.999847 -0.000231129 0)
(0.999569 0.000411706 0)
(0.999767 0.000181755 0)
(0.999334 -0.000106829 0)
(0.999065 0.000893926 0)
(0.9994 0.000405116 0)
(0.998901 0.000439269 0)
(0.998569 0.0014258 0)
(0.998986 0.00128504 0)
(0.998821 0.0012366 0)
(0.998363 0.00207588 0)
(0.998591 0.00255041 0)
(0.998951 0.00259242 0)
(0.998886 0.00301347 0)
(0.998878 0.00361687 0)
(0.999244 0.00397853 0)
(0.999978 -1.58331e-05 0)
(1.00001 0.000102481 0)
(0.999906 -7.12434e-05 0)
(0.999925 0.000316997 0)
(0.999851 -0.000162346 0)
(0.999589 0.000361307 0)
(0.999736 0.000232486 0)
(0.999382 -4.14964e-05 0)
(0.999102 0.000814235 0)
(0.999369 0.000512108 0)
(0.998988 0.00048671 0)
(0.998651 0.00134779 0)
(0.998974 0.0013663 0)
(0.998908 0.00131119 0)
(0.998524 0.00200811 0)
(0.998668 0.00252504 0)
(0.999018 0.00261896 0)
(0.999041 0.00294655 0)
(0.999044 0.00347522 0)
(0.999341 0.00383934 0)
(0.99998 -1.3191e-05 0)
(1.00001 9.69101e-05 0)
(0.999914 -5.00101e-05 0)
(0.999917 0.000289225 0)
(0.999853 -0.000100228 0)
(0.99961 0.000321979 0)
(0.999711 0.000273078 0)
(0.999423 2.69281e-05 0)
(0.999143 0.000747987 0)
(0.999346 0.000596611 0)
(0.999063 0.000544935 0)
(0.99874 0.00128172 0)
(0.998977 0.00142125 0)
(0.998982 0.00138598 0)
(0.998678 0.00195499 0)
(0.99876 0.00248055 0)
(0.999084 0.00262853 0)
(0.999177 0.0028899 0)
(0.999202 0.00334196 0)
(0.999446 0.0036938 0)
(0.999983 -1.05573e-05 0)
(1 9.17651e-05 0)
(0.999921 -2.98732e-05 0)
(0.999911 0.000265104 0)
(0.999854 -4.45784e-05 0)
(0.999631 0.000293062 0)
(0.999692 0.000304935 0)
(0.999458 9.39667e-05 0)
(0.999188 0.000695265 0)
(0.999333 0.0006616 0)
(0.999127 0.000608596 0)
(0.998832 0.00122921 0)
(0.998996 0.00145398 0)
(0.999048 0.00145489 0)
(0.998823 0.00191592 0)
(0.998864 0.00242394 0)
(0.999152 0.0026196 0)
(0.999295 0.00283858 0)
(0.99935 0.00321837 0)
(0.999557 0.00354698 0)
(0.999985 -7.94843e-06 0)
(0.999999 8.70992e-05 0)
(0.999927 -1.0906e-05 0)
(0.999906 0.000244618 0)
(0.999854 4.76671e-06 0)
(0.999651 0.000273419 0)
(0.999678 0.000329666 0)
(0.999488 0.000158806 0)
(0.999236 0.000655866 0)
(0.999329 0.000710238 0)
(0.999184 0.000673163 0)
(0.998924 0.00119048 0)
(0.99903 0.0014691 0)
(0.999108 0.00151355 0)
(0.998956 0.00188857 0)
(0.998975 0.00236121 0)
(0.999225 0.00259286 0)
(0.9994 0.00278803 0)
(0.999486 0.00310422 0)
(0.999668 0.00340254 0)
(0.999987 -5.37987e-06 0)
(0.999996 8.2957e-05 0)
(0.999933 6.86034e-06 0)
(0.999903 0.000227712 0)
(0.999854 4.8193e-05 0)
(0.999671 0.000261863 0)
(0.99967 0.000348973 0)
(0.999515 0.000220045 0)
(0.999283 0.000628827 0)
(0.999335 0.000745717 0)
(0.999234 0.000735039 0)
(0.999014 0.0011645 0)
(0.999076 0.00147116 0)
(0.999167 0.00155938 0)
(0.999078 0.00186958 0)
(0.99909 0.00229693 0)
(0.999304 0.00255061 0)
(0.999495 0.0027346 0)
(0.999608 0.00299813 0)
(0.999777 0.00326279 0)
(0.999989 -2.8664e-06 0)
(0.999993 7.93751e-05 0)
(0.999937 2.33976e-05 0)
(0.999901 0.000214243 0)
(0.999855 8.63757e-05 0)
(0.99969 0.000257204 0)
(0.999667 0.000364364 0)
(0.999539 0.000276676 0)
(0.999331 0.000612773 0)
(0.999349 0.000771067 0)
(0.999281 0.00079161 0)
(0.999102 0.00114935 0)
(0.999132 0.00146424 0)
(0.999226 0.00159139 0)
(0.999189 0.00185523 0)
(0.999206 0.00223398 0)
(0.999387 0.0024961 0)
(0.999582 0.00267593 0)
(0.999718 0.00289807 0)
(0.999881 0.00312882 0)
(0.99999 -4.21033e-07 0)
(0.999991 7.63784e-05 0)
(0.999941 3.8704e-05 0)
(0.999901 0.000204031 0)
(0.999855 0.000119722 0)
(0.999708 0.000258233 0)
(0.999668 0.000377121 0)
(0.999561 0.000328082 0)
(0.999379 0.000606029 0)
(0.999371 0.000788986 0)
(0.999326 0.000841211 0)
(0.999185 0.00114262 0)
(0.999197 0.0014517 0)
(0.999287 0.00160992 0)
(0.999291 0.00184208 0)
(0.999318 0.0021738 0)
(0.999475 0.00243284 0)
(0.999666 0.00261094 0)
(0.999817 0.00280181 0)
(0.999977 0.0030008 0)
(0.999992 1.94554e-06 0)
(0.999989 7.39795e-05 0)
(0.999945 5.28027e-05 0)
(0.999902 0.000196834 0)
(0.999856 0.000148774 0)
(0.999725 0.000263799 0)
(0.999674 0.000388286 0)
(0.999583 0.000373999 0)
(0.999425 0.000606768 0)
(0.9994 0.000801723 0)
(0.99937 0.000883004 0)
(0.999265 0.00114172 0)
(0.999266 0.00143598 0)
(0.999351 0.00161614 0)
(0.999385 0.00182729 0)
(0.999426 0.00211656 0)
(0.999565 0.00236401 0)
(0.999747 0.00253972 0)
(0.999907 0.0027074 0)
(1.00007 0.0028783 0)
(0.999993 4.22384e-06 0)
(0.999988 7.21785e-05 0)
(0.999948 6.57371e-05 0)
(0.999903 0.000192371 0)
(0.999858 0.000174077 0)
(0.999742 0.000272826 0)
(0.999683 0.000398642 0)
(0.999604 0.00041444 0)
(0.999469 0.000613145 0)
(0.999435 0.000811022 0)
(0.999415 0.000916821 0)
(0.99934 0.00114415 0)
(0.99934 0.00141869 0)
(0.999417 0.00161177 0)
(0.999473 0.00180889 0)
(0.999529 0.00206167 0)
(0.999655 0.0022921 0)
(0.999826 0.00246314 0)
(0.999989 0.00261346 0)
(1.00015 0.00276056 0)
(0.999994 6.40669e-06 0)
(0.999987 7.0963e-05 0)
(0.999951 7.75669e-05 0)
(0.999906 0.000190333 0)
(0.999861 0.000196159 0)
(0.999759 0.000284341 0)
(0.999696 0.000408731 0)
(0.999626 0.000449626 0)
(0.999513 0.000623404 0)
(0.999474 0.000818126 0)
(0.999461 0.000942977 0)
(0.999412 0.0011477 0)
(0.999415 0.00140064 0)
(0.999487 0.00159868 0)
(0.999556 0.00178573 0)
(0.999625 0.00200811 0)
(0.999743 0.00221878 0)
(0.999903 0.00238245 0)
(1.00006 0.00251924 0)
(1.00022 0.0026467 0)
(0.999995 8.48896e-06 0)
(0.999986 7.03087e-05 0)
(0.999953 8.83636e-05 0)
(0.999909 0.000190389 0)
(0.999865 0.000215511 0)
(0.999775 0.00029749 0)
(0.999711 0.000418866 0)
(0.999649 0.000479921 0)
(0.999556 0.000635957 0)
(0.999516 0.000823814 0)
(0.999508 0.000962088 0)
(0.999481 0.00115053 0)
(0.99949 0.00138207 0)
(0.999558 0.00157867 0)
(0.999636 0.00175737 0)
(0.999715 0.00195483 0)
(0.99983 0.00214511 0)
(0.999979 0.00229903 0)
(1.00014 0.00242448 0)
(1.00029 0.00253591 0)
(0.999996 1.04675e-05 0)
(0.999986 7.01804e-05 0)
(0.999956 9.82054e-05 0)
(0.999913 0.000192203 0)
(0.99987 0.00023257 0)
(0.99979 0.000311535 0)
(0.999728 0.000429168 0)
(0.999674 0.000505762 0)
(0.999597 0.000649431 0)
(0.999561 0.000828464 0)
(0.999558 0.00097491 0)
(0.999548 0.00115133 0)
(0.999564 0.00136282 0)
(0.99963 0.00155326 0)
(0.999712 0.00172388 0)
(0.9998 0.0019009 0)
(0.999912 0.00207159 0)
(1.00005 0.0022141 0)
(1.0002 0.00232924 0)
(1.00035 0.00242753 0)
(0.999997 1.23408e-05 0)
(0.999986 7.05323e-05 0)
(0.999958 0.000107172 0)
(0.999918 0.000195435 0)
(0.999876 0.000247708 0)
(0.999806 0.00032586 0)
(0.999748 0.000439591 0)
(0.999699 0.000527601 0)
(0.999638 0.000662698 0)
(0.999607 0.00083214 0)
(0.999608 0.000982216 0)
(0.999612 0.00114919 0)
(0.999637 0.00134253 0)
(0.999702 0.00152363 0)
(0.999787 0.00168569 0)
(0.99988 0.00184568 0)
(0.999991 0.00199838 0)
(1.00012 0.00212862 0)
(1.00027 0.0022339 0)
(1.00041 0.00232117 0)
(0.999997 1.4109e-05 0)
(0.999986 7.13097e-05 0)
(0.999961 0.000115338 0)
(0.999923 0.000199753 0)
(0.999883 0.000261225 0)
(0.999822 0.000339959 0)
(0.999769 0.000449972 0)
(0.999726 0.000545854 0)
(0.999679 0.000674875 0)
(0.999655 0.000834697 0)
(0.99966 0.000984722 0)
(0.999675 0.0011436 0)
(0.999708 0.00132077 0)
(0.999773 0.00149064 0)
(0.999859 0.0016434 0)
(0.999955 0.00178881 0)
(1.00006 0.00192535 0)
(1.00019 0.00204321 0)
(1.00033 0.00213892 0)
(1.00046 0.00221672 0)
(0.999998 1.57728e-05 0)
(0.999986 7.24495e-05 0)
(0.999963 0.000122773 0)
(0.999928 0.00020484 0)
(0.999891 0.000273347 0)
(0.999838 0.000353428 0)
(0.999791 0.000460062 0)
(0.999755 0.000560878 0)
(0.999719 0.000685303 0)
(0.999702 0.000835875 0)
(0.999713 0.000983032 0)
(0.999737 0.00113433 0)
(0.999777 0.00129709 0)
(0.999843 0.00145486 0)
(0.999929 0.00159768 0)
(1.00003 0.00173021 0)
(1.00013 0.00185234 0)
(1.00025 0.00195824 0)
(1.00038 0.00204474 0)
(1.00051 0.00211418 0)
(0.999998 1.7333e-05 0)
(0.999987 7.38814e-05 0)
(0.999966 0.000129532 0)
(0.999934 0.000210397 0)
(0.9999 0.000284222 0)
(0.999855 0.000365945 0)
(0.999814 0.000469572 0)
(0.999784 0.00057295 0)
(0.999759 0.000693509 0)
(0.99975 0.000835366 0)
(0.999766 0.000977613 0)
(0.999797 0.00112134 0)
(0.999843 0.00127115 0)
(0.999911 0.00141667 0)
(0.999997 0.00154914 0)
(1.00009 0.00166993 0)
(1.0002 0.00177927 0)
(1.00031 0.00187398 0)
(1.00043 0.00195165 0)
(1.00056 0.00201355 0)
(0.999998 1.879e-05 0)
(0.999988 7.55303e-05 0)
(0.999969 0.000135655 0)
(0.99994 0.000216146 0)
(0.99991 0.000293936 0)
(0.999872 0.000377254 0)
(0.999838 0.000478195 0)
(0.999815 0.000582267 0)
(0.999799 0.000699167 0)
(0.999798 0.000832846 0)
(0.999819 0.000968795 0)
(0.999856 0.00110472 0)
(0.999907 0.00124275 0)
(0.999977 0.0013763 0)
(1.00006 0.00149826 0)
(1.00016 0.00160816 0)
(1.00026 0.00170612 0)
(1.00037 0.00179058 0)
(1.00048 0.00185989 0)
(1.0006 0.00191488 0)
(0.999999 2.01426e-05 0)
(0.999989 7.73181e-05 0)
(0.999972 0.000141166 0)
(0.999947 0.000221835 0)
(0.99992 0.000302513 0)
(0.999889 0.000387148 0)
(0.999862 0.000485623 0)
(0.999846 0.000588949 0)
(0.999839 0.000702073 0)
(0.999845 0.000828019 0)
(0.999871 0.000956797 0)
(0.999913 0.00108465 0)
(0.999969 0.0012118 0)
(1.00004 0.00133391 0)
(1.00012 0.00144545 0)
(1.00022 0.00154513 0)
(1.00032 0.00163289 0)
(1.00042 0.00170805 0)
(1.00053 0.00176962 0)
(1.00064 0.00181828 0)
(0.999999 2.1388e-05 0)
(0.99999 7.91651e-05 0)
(0.999975 0.000146072 0)
(0.999954 0.000227229 0)
(0.999932 0.000309927 0)
(0.999907 0.000395456 0)
(0.999887 0.000491559 0)
(0.999878 0.000593043 0)
(0.999878 0.000702102 0)
(0.999892 0.000820649 0)
(0.999923 0.000941767 0)
(0.999969 0.00106134 0)
(1.00003 0.00117831 0)
(1.0001 0.00128959 0)
(1.00018 0.00139104 0)
(1.00027 0.00148114 0)
(1.00037 0.00155965 0)
(1.00047 0.00162636 0)
(1.00057 0.00168087 0)
(1.00067 0.00172384 0)
(0.999999 2.25221e-05 0)
(0.999991 8.09902e-05 0)