/*--------------------------------*- C++ -*----------------------------------*\
| =========                 |                                                 |
| \\      /  F ield         | OpenFOAM: The Open Source CFD Toolbox           |
|  \\    /   O peration     | Version:  v2012                                 |
|   \\  /    A nd           | Website:  www.openfoam.com                      |
|    \\/     M anipulation  |                                                 |
\*---------------------------------------------------------------------------*/
FoamFile
{
    version     2.0;
    format      ascii;
    class       volVectorField;
    location    "3.7";
    object      U;
}
// * * * * * * * * * * * * * * * * * * * * * * * * * * * * * * * * * * * * * //

dimensions      [0 1 -1 0 0 0 0];


internalField   nonuniform List<vector> 
17600
(
(0.831948 0.00124784 0)
(1.15948 -0.00210611 0)
(0.850816 0.00207656 0)
(1.1373 -0.0055439 0)
(0.860527 0.00567058 0)
(1.13203 -0.00561923 0)
(0.861963 0.00651743 0)
(1.12947 -0.00122097 0)
(0.863565 0.00312604 0)
(1.12034 0.00155946 0)
(0.864703 0.00127501 0)
(1.11097 0.00147521 0)
(0.862903 0.00148212 0)
(1.1032 0.000590312 0)
(0.858691 0.00169752 0)
(1.09746 0.000432766 0)
(0.851099 0.00220614 0)
(1.09383 0.000347727 0)
(0.837105 0.00324294 0)
(1.09029 0.000606461 0)
(0.842431 0.00121928 0)
(1.14665 -0.00205341 0)
(0.861676 0.00205001 0)
(1.12353 -0.00540991 0)
(0.870369 0.0055241 0)
(1.11593 -0.0053958 0)
(0.872658 0.00632114 0)
(1.11005 -0.00100396 0)
(0.879564 0.00299528 0)
(1.09717 0.00179862 0)
(0.888757 0.00118781 0)
(1.0825 0.00171537 0)
(0.896879 0.001409 0)
(1.06578 0.000883145 0)
(0.906119 0.00167625 0)
(1.04512 0.000702022 0)
(0.91934 0.00250147 0)
(1.01738 0.00034521 0)
(0.937295 0.00467115 0)
(0.975685 -0.000104363 0)
(0.8628 0.00121039 0)
(1.12339 -0.00201107 0)
(0.88279 0.0020463 0)
(1.1 -0.00529019 0)
(0.890661 0.00538489 0)
(1.09012 -0.00520218 0)
(0.89497 0.00613872 0)
(1.07939 -0.00087823 0)
(0.909326 0.00295326 0)
(1.06153 0.00184287 0)
(0.926099 0.00124449 0)
(1.04297 0.00172647 0)
(0.93988 0.00157916 0)
(1.0236 0.00081973 0)
(0.952151 0.00200338 0)
(1.00312 0.000515454 0)
(0.963152 0.00299613 0)
(0.983458 0.000145259 0)
(0.968856 0.00517117 0)
(0.965912 0.00084069 0)
(0.890029 0.00124079 0)
(1.09391 -0.00201008 0)
(0.910295 0.00207713 0)
(1.07194 -0.00521236 0)
(0.917292 0.00532162 0)
(1.06169 -0.0050941 0)
(0.923267 0.00608825 0)
(1.0486 -0.000917347 0)
(0.942113 0.00305594 0)
(1.02999 0.0016967 0)
(0.959587 0.00143859 0)
(1.01414 0.00156372 0)
(0.969958 0.00184353 0)
(1.00104 0.000648427 0)
(0.975829 0.00234205 0)
(0.989608 0.000348219 0)
(0.978067 0.00333852 0)
(0.981053 0.000139879 0)
(0.975097 0.00541944 0)
(0.973409 0.00191244 0)
(0.919513 0.0013034 0)
(1.06387 -0.00204813 0)
(0.93847 0.00213077 0)
(1.04544 -0.00516146 0)
(0.943886 0.00530408 0)
(1.03719 -0.00503953 0)
(0.949805 0.00611421 0)
(1.02575 -0.0010444 0)
(0.968224 0.00320932 0)
(1.01149 0.00152135 0)
(0.98133 0.00162238 0)
(1.00187 0.00143828 0)
(0.985812 0.00202922 0)
(0.995681 0.000580374 0)
(0.98627 0.00254161 0)
(0.990001 0.000326828 0)
(0.98463 0.00352336 0)
(0.985045 0.000274228 0)
(0.98028 0.0056173 0)
(0.978558 0.00292138 0)
(0.946531 0.00138227 0)
(1.03857 -0.00210655 0)
(0.962305 0.00218666 0)
(1.0252 -0.00512136 0)
(0.965377 0.00529394 0)
(1.02012 -0.00500296 0)
(0.969652 0.00613809 0)
(1.0126 -0.00117863 0)
(0.984652 0.00332111 0)
(1.0043 0.00139063 0)
(0.993015 0.00173623 0)
(0.999779 0.00138372 0)
(0.993938 0.00213337 0)
(0.99722 0.000579241 0)
(0.992364 0.00266695 0)
(0.993534 0.00035987 0)
(0.98991 0.00364855 0)
(0.989343 0.000470177 0)
(0.985626 0.00576433 0)
(0.983349 0.00384551 0)
(0.96782 0.00145805 0)
(1.02085 -0.00216386 0)
(0.979356 0.00222569 0)
(1.01263 -0.00507846 0)
(0.979956 0.00527305 0)
(1.01036 -0.00496253 0)
(0.982062 0.00612617 0)
(1.00645 -0.00128432 0)
(0.993312 0.00336326 0)
(1.00273 0.00130298 0)
(0.998787 0.00179229 0)
(1.00097 0.00135814 0)
(0.998572 0.00219622 0)
(0.999852 0.000593184 0)
(0.996691 0.0027613 0)
(0.996933 0.000417347 0)
(0.994211 0.00372779 0)
(0.993168 0.000739338 0)
(0.990067 0.00582518 0)
(0.987801 0.00473641 0)
(0.982365 0.00151493 0)
(1.0105 -0.00220616 0)
(0.989859 0.00223962 0)
(1.00629 -0.00502579 0)
(0.988599 0.00523927 0)
(1.00568 -0.00490926 0)
(0.988893 0.0060808 0)
(1.00391 -0.0013575 0)
(0.997341 0.00335254 0)
(1.00275 0.00123874 0)
(1.00156 0.00181468 0)
(1.00231 0.00133755 0)
(1.00133 0.0022374 0)
(1.0019 0.000610972 0)
(0.999685 0.0028312 0)
(0.999543 0.000499344 0)
(0.9974 0.00375891 0)
(0.996207 0.00107979 0)
(0.993514 0.00581271 0)
(0.991439 0.00558796 0)
(0.991068 0.00154663 0)
(1.0054 -0.00223022 0)
(0.995559 0.00223167 0)
(1.00359 -0.0049644 0)
(0.993381 0.00519661 0)
(1.00374 -0.00484176 0)
(0.992523 0.0060149 0)
(1.00289 -0.001402 0)
(0.999159 0.00331138 0)
(1.00289 0.00118709 0)
(1.00289 0.00181771 0)
(1.00314 0.00131595 0)
(1.00295 0.00226141 0)
(1.00324 0.000633936 0)
(1.00169 0.0028715 0)
(1.00142 0.000607845 0)
(0.999706 0.00374204 0)
(0.998505 0.00147489 0)
(0.996172 0.00575343 0)
(0.9943 0.00637143 0)
(0.995725 0.00155636 0)
(1.00317 -0.00223984 0)
(0.998393 0.00221035 0)
(1.00241 -0.00489906 0)
(0.996106 0.00514774 0)
(1.00299 -0.00476199 0)
(0.994692 0.00593684 0)
(1.00253 -0.00142114 0)
(1.00015 0.00325174 0)
(1.00296 0.00114712 0)
(1.00362 0.00180417 0)
(1.00363 0.00129538 0)
(1.00395 0.00226604 0)
(1.00414 0.000663894 0)
(1.00306 0.002876 0)
(1.00277 0.000745249 0)
(1.0014 0.00367893 0)
(1.00026 0.00190472 0)
(0.998249 0.00567499 0)
(0.996579 0.00705721 0)
(0.998049 0.00155162 0)
(1.00215 -0.00224053 0)
(0.999766 0.00218348 0)
(1.00165 -0.0048338 0)
(0.997831 0.00509172 0)
(1.00265 -0.00467292 0)
(0.996282 0.0058476 0)
(1.00253 -0.00141773 0)
(1.00092 0.00317777 0)
(1.0031 0.00112099 0)
(1.00414 0.00177273 0)
(1.00398 0.00128151 0)
(1.00464 0.00224658 0)
(1.00479 0.000704978 0)
(1.00404 0.00284202 0)
(1.00378 0.000911702 0)
(1.00266 0.00357646 0)
(1.0016 0.00234899 0)
(0.999874 0.00560902 0)
(0.998398 0.00762373 0)
(0.999201 0.00153927 0)
(1.00159 -0.00223635 0)
(1.00045 0.00215565 0)
(1.001 -0.00477033 0)
(0.999015 0.00502586 0)
(1.00246 -0.00457701 0)
(0.997573 0.00574386 0)
(1.00271 -0.00139398 0)
(1.00163 0.00309001 0)
(1.00332 0.00111084 0)
(1.00458 0.00172337 0)
(1.0043 0.00127985 0)
(1.00514 0.00219987 0)
(1.00527 0.00076298 0)
(1.00473 0.00277096 0)
(1.00451 0.0011031 0)
(1.00358 0.00345073 0)
(1.0026 0.0027842 0)
(1.00111 0.00558473 0)
(0.99981 0.00806382 0)
(0.999799 0.0015234 0)
(1.00122 -0.00222942 0)
(1.00082 0.00212847 0)
(1.00045 -0.00470823 0)
(0.99982 0.00494814 0)
(1.00232 -0.00447541 0)
(0.998583 0.00562217 0)
(1.00296 -0.00135104 0)
(1.00224 0.00298615 0)
(1.00358 0.00111975 0)
(1.00495 0.00165659 0)
(1.00457 0.00129464 0)
(1.00549 0.00212715 0)
(1.00561 0.000840795 0)
(1.0052 0.0026677 0)
(1.00501 0.00131143 0)
(1.00421 0.00332547 0)
(1.0033 0.00318578 0)
(1.00202 0.00561887 0)
(1.00087 0.00838767 0)
(1.00012 0.00150578 0)
(1.00098 -0.00222067 0)
(1.001 0.0021017 0)
(1.00006 -0.00464586 0)
(1.00033 0.00485809 0)
(1.00223 -0.00436809 0)
(0.999304 0.00548106 0)
(1.00318 -0.00129005 0)
(1.00272 0.00286516 0)
(1.00381 0.00114694 0)
(1.00522 0.00156986 0)
(1.00478 0.00132756 0)
(1.00572 0.00203227 0)
(1.00584 0.000936584 0)
(1.00549 0.00254297 0)
(1.00533 0.00152436 0)
(1.00462 0.00322539 0)
(1.00377 0.00353514 0)
(1.00266 0.00571179 0)
(1.00164 0.00861784 0)
(1.0003 0.00148692 0)
(1.00084 -0.0022104 0)
(1.00109 0.00207433 0)
(0.999833 -0.00458114 0)
(1.00062 0.00475603 0)
(1.00219 -0.00425382 0)
(0.999772 0.0053201 0)
(1.00334 -0.00121134 0)
(1.00305 0.0027255 0)
(1.00398 0.00119336 0)
(1.00541 0.00146163 0)
(1.00493 0.00137926 0)
(1.00585 0.00191791 0)
(1.00598 0.00104587 0)
(1.00566 0.00241107 0)
(1.00551 0.00172787 0)
(1.00489 0.00316753 0)
(1.00408 0.00382983 0)
(1.00313 0.00585296 0)
(1.00221 0.00878168 0)
(1.00039 0.00146686 0)
(1.00077 -0.00219849 0)
(1.00112 0.00204513 0)
(0.999723 -0.00451218 0)
(1.00077 0.0046421 0)
(1.00217 -0.00413048 0)
(1.00006 0.00513886 0)
(1.00342 -0.00111385 0)
(1.00327 0.00256325 0)
(1.00407 0.00126347 0)
(1.00552 0.00133216 0)
(1.00502 0.00144869 0)
(1.00592 0.00178728 0)
(1.00606 0.00116144 0)
(1.00576 0.00228724 0)
(1.00562 0.00190764 0)
(1.00507 0.00315743 0)
(1.0043 0.0040808 0)
(1.00349 0.00602489 0)
(1.00266 0.00890463 0)
(1.00044 0.00144542 0)
(1.00073 -0.00218457 0)
(1.00112 0.00201299 0)
(0.999685 -0.00443739 0)
(1.00085 0.00451573 0)
(1.00218 -0.00399587 0)
(1.00025 0.00493688 0)
(1.00345 -0.000996616 0)
(1.00343 0.00237681 0)
(1.0041 0.00135572 0)
(1.0056 0.00118235 0)
(1.00507 0.00153122 0)
(1.00596 0.00164809 0)
(1.0061 0.00127095 0)
(1.00583 0.00218834 0)
(1.00568 0.00205223 0)
(1.00521 0.00319273 0)
(1.00448 0.00430042 0)
(1.00381 0.00620543 0)
(1.00305 0.00900228 0)
(1.00047 0.00142256 0)
(1.00071 -0.00216855 0)
(1.00111 0.00197705 0)
(0.999686 -0.00435551 0)
(1.0009 0.00437637 0)
(1.00219 -0.00384902 0)
(1.00037 0.00471482 0)
(1.00343 -0.000860537 0)
(1.00355 0.00216791 0)
(1.0041 0.00146529 0)
(1.00564 0.00101535 0)
(1.0051 0.00162063 0)
(1.00597 0.00151255 0)
(1.00613 0.00135985 0)
(1.00588 0.00212696 0)
(1.00573 0.00215976 0)
(1.00534 0.00326452 0)
(1.00465 0.00450006 0)
(1.0041 0.00637566 0)
(1.00341 0.00907767 0)
(1.00049 0.00139829 0)
(1.0007 -0.00215008 0)
(1.0011 0.00193603 0)
(0.999707 -0.00426517 0)
(1.00094 0.00422302 0)
(1.0022 -0.00368829 0)
(1.00048 0.0044714 0)
(1.0034 -0.00070339 0)
(1.00365 0.00193556 0)
(1.00408 0.00159076 0)
(1.00568 0.000836572 0)
(1.00511 0.00170578 0)
(1.00598 0.00139295 0)
(1.00615 0.00141489 0)
(1.00592 0.0021079 0)
(1.00578 0.00224087 0)
(1.00547 0.00336137 0)
(1.00482 0.00469634 0)
(1.00438 0.00653202 0)
(1.00376 0.0091324 0)
(1.00051 0.00137235 0)
(1.00069 -0.00212813 0)
(1.00109 0.00188842 0)
(0.999737 -0.00416507 0)
(1.00097 0.00405406 0)
(1.00221 -0.00351077 0)
(1.00057 0.00420385 0)
(1.00335 -0.000522959 0)
(1.00374 0.00167939 0)
(1.00404 0.00172898 0)
(1.0057 0.000655844 0)
(1.00512 0.00177517 0)
(1.00598 0.00130133 0)
(1.00617 0.00142574 0)
(1.00596 0.00212447 0)
(1.00583 0.00231005 0)
(1.0056 0.00346623 0)
(1.005 0.00490279 0)
(1.00466 0.00668469 0)
(1.0041 0.00917237 0)
(1.00052 0.00134446 0)
(1.00068 -0.00210171 0)
(1.00107 0.00183286 0)
(0.999774 -0.00405378 0)
(1.001 0.00386728 0)
(1.00223 -0.0033149 0)
(1.00067 0.00391256 0)
(1.00329 -0.000324621 0)
(1.00382 0.00140789 0)
(1.00401 0.00186857 0)
(1.00572 0.000483748 0)
(1.00513 0.00181716 0)
(1.00597 0.00124807 0)
(1.00619 0.00139134 0)
(1.00601 0.00216083 0)
(1.00589 0.00238126 0)
(1.00575 0.00356097 0)
(1.00518 0.00511849 0)
(1.00494 0.00684819 0)
(1.00444 0.00920677 0)
(1.00053 0.00131457 0)
(1.00067 -0.00206997 0)
(1.00105 0.00176787 0)
(0.999815 -0.00393037 0)
(1.00104 0.00366203 0)
(1.00224 -0.0031032 0)
(1.00076 0.00360265 0)
(1.00322 -0.000116127 0)
(1.00391 0.0011298 0)
(1.00397 0.00200011 0)
(1.00573 0.000331765 0)
(1.00515 0.00181538 0)
(1.00595 0.00123424 0)
(1.00622 0.00132315 0)
(1.00606 0.00219979 0)
(1.00596 0.0024669 0)
(1.00592 0.00363993 0)
(1.00538 0.00533209 0)
(1.00522 0.00703253 0)
(1.00478 0.00924807 0)
(1.00052 0.00128272 0)
(1.00067 -0.0020316 0)
(1.00103 0.00169152 0)
(0.999862 -0.0037936 0)
(1.00107 0.00343806 0)
(1.00225 -0.00287546 0)
(1.00085 0.0032736 0)
(1.00316 0.000101829 0)
(1.00399 0.000845673 0)
(1.00394 0.00211641 0)
(1.00574 0.000211294 0)
(1.00518 0.00176812 0)
(1.00593 0.00125407 0)
(1.00626 0.00124338 0)
(1.00612 0.00222077 0)
(1.00603 0.00256801 0)
(1.00609 0.00369765 0)
(1.0056 0.00552865 0)
(1.00549 0.00723367 0)
(1.00511 0.00931096 0)
(1.00051 0.00124734 0)
(1.00068 -0.00198316 0)
(1.001 0.00159909 0)
(0.999915 -0.00363927 0)
(1.0011 0.00319003 0)
(1.00227 -0.00262702 0)
(1.00094 0.00292229 0)
(1.0031 0.000328071 0)
(1.00407 0.000563851 0)
(1.00392 0.00220465 0)
(1.00573 0.000125905 0)
(1.00522 0.00167425 0)
(1.0059 0.00129617 0)
(1.0063 0.00116289 0)
(1.00618 0.00221494 0)
(1.0061 0.00267203 0)
(1.00628 0.0037269 0)
(1.00585 0.00568599 0)
(1.00577 0.00743712 0)
(1.00544 0.00941634 0)
(1.00049 0.00121055 0)
(1.0007 -0.00192723 0)
(1.00096 0.00149402 0)
(0.999976 -0.00347509 0)
(1.00112 0.00292851 0)
(1.0023 -0.002376 0)
(1.00103 0.00257372 0)
(1.00305 0.000538161 0)
(1.00414 0.000323555 0)
(1.00391 0.00223348 0)
(1.00571 9.73572e-05 0)
(1.00527 0.00150718 0)
(1.00587 0.00137097 0)
(1.00634 0.00105942 0)
(1.00626 0.00220762 0)
(1.00619 0.00275249 0)
(1.00647 0.00373415 0)
(1.00612 0.00571201 0)
(1.00605 0.00760064 0)
(1.00577 0.0095507 0)
(1.00046 0.00117035 0)
(1.00073 -0.00185881 0)
(1.00091 0.00137237 0)
(1.00004 -0.00329711 0)
(1.00114 0.00265107 0)
(1.00232 -0.00211969 0)
(1.00111 0.00222524 0)
(1.003 0.000734764 0)
(1.0042 0.000114355 0)
(1.00391 0.00221394 0)
(1.00567 0.000109681 0)
(1.00533 0.00131658 0)
(1.00583 0.0014456 0)
(1.00639 0.000968156 0)
(1.00635 0.00216413 0)
(1.00629 0.00283143 0)
(1.00666 0.00371044 0)
(1.00642 0.00563076 0)
(1.00637 0.0076197 0)
(1.00611 0.00953679 0)
(1.00041 0.00112668 0)
(1.00077 -0.00177813 0)
(1.00085 0.00123354 0)
(1.00012 -0.00310499 0)
(1.00115 0.00235614 0)
(1.00235 -0.00185549 0)
(1.00119 0.00187737 0)
(1.00296 0.000912115 0)
(1.00425 -6.83467e-05 0)
(1.00392 0.00216381 0)
(1.00561 0.000143907 0)
(1.0054 0.00114428 0)
(1.00579 0.00149816 0)
(1.00642 0.000933046 0)
(1.00645 0.00207056 0)
(1.00639 0.00292978 0)
(1.00685 0.00375589 0)
(1.00673 0.005603 0)
(1.00669 0.00765284 0)
(1.00649 0.00957537 0)
(1.00036 0.00108204 0)
(1.00081 -0.00168709 0)
(1.00079 0.00108317 0)
(1.00019 -0.00290994 0)
(1.00116 0.00206211 0)
(1.00239 -0.0016143 0)
(1.00126 0.00156987 0)
(1.00292 0.00103861 0)
(1.00428 -0.000200634 0)
(1.00394 0.00206343 0)
(1.00554 0.000216707 0)
(1.00547 0.00095103 0)
(1.00576 0.00155566 0)
(1.00646 0.000957048 0)
(1.00656 0.00202196 0)
(1.00651 0.00307852 0)
(1.00703 0.00393494 0)
(1.00705 0.00564531 0)
(1.00704 0.00773427 0)
(1.00686 0.00964208 0)
(1.0003 0.00103232 0)
(1.00085 -0.00158066 0)
(1.00072 0.000920019 0)
(1.00026 -0.00270823 0)
(1.00117 0.00176494 0)
(1.00242 -0.00138812 0)
(1.00133 0.00128596 0)
(1.00288 0.00113432 0)
(1.00431 -0.000302787 0)
(1.00397 0.00194166 0)
(1.00547 0.000309746 0)
(1.00555 0.000759926 0)
(1.00573 0.00160861 0)
(1.00649 0.00107199 0)
(1.00668 0.00203341 0)
(1.00665 0.00328265 0)
(1.00721 0.00416281 0)
(1.00737 0.0057432 0)
(1.0074 0.00780165 0)
(1.00724 0.00970822 0)
(1.00024 0.0009822 0)
(1.00088 -0.00147068 0)
(1.00066 0.000756302 0)
(1.00033 -0.00251427 0)
(1.00119 0.00148255 0)
(1.00244 -0.00119051 0)
(1.00141 0.00102958 0)
(1.00285 0.00120007 0)
(1.00433 -0.000374205 0)
(1.00401 0.00180507 0)
(1.00538 0.000440032 0)
(1.00562 0.000638799 0)
(1.00573 0.00168447 0)
(1.00651 0.00127653 0)
(1.00681 0.0020771 0)
(1.00682 0.00346241 0)
(1.00739 0.00439317 0)
(1.0077 0.00584789 0)
(1.00777 0.00782096 0)
(1.00762 0.00971468 0)
(1.00019 0.000930262 0)
(1.00091 -0.00135084 0)
(1.0006 0.000587334 0)
(1.00039 -0.00233797 0)
(1.00121 0.0012216 0)
(1.00246 -0.00103241 0)
(1.00148 0.000809224 0)
(1.00281 0.00123428 0)
(1.00434 -0.000412429 0)
(1.00406 0.00165379 0)
(1.0053 0.000621706 0)
(1.00569 0.000598998 0)
(1.00575 0.0017825 0)
(1.00653 0.00153017 0)
(1.00695 0.00214795 0)
(1.007 0.00357653 0)
(1.00757 0.00459212 0)
(1.00801 0.00593174 0)
(1.00815 0.00779052 0)
(1.008 0.00964529 0)
(1.00015 0.000877873 0)
(1.00092 -0.00122795 0)
(1.00054 0.000422585 0)
(1.00044 -0.00218316 0)
(1.00123 0.000977922 0)
(1.00248 -0.000899361 0)
(1.00155 0.000605948 0)
(1.00277 0.00126311 0)
(1.00434 -0.000412682 0)
(1.00411 0.00152593 0)
(1.00522 0.000828632 0)
(1.00576 0.00060995 0)
(1.00579 0.00184788 0)
(1.00655 0.00178869 0)
(1.00707 0.00223561 0)
(1.0072 0.00363765 0)
(1.00776 0.00474066 0)
(1.00831 0.00599768 0)
(1.00852 0.00772609 0)
(1.00838 0.00951782 0)
(1.00011 0.000825532 0)
(1.00093 -0.00110953 0)
(1.00049 0.000279351 0)
(1.00048 -0.00206771 0)
(1.00126 0.000758557 0)
(1.00249 -0.000800945 0)
(1.00163 0.000419506 0)
(1.00273 0.00129104 0)
(1.00434 -0.000344303 0)
(1.00417 0.00143451 0)
(1.00515 0.00105157 0)
(1.00581 0.000659273 0)
(1.00584 0.00186325 0)
(1.00656 0.00201694 0)
(1.00719 0.0023355 0)
(1.00741 0.00366095 0)
(1.00796 0.00483299 0)
(1.0086 0.0060366 0)
(1.0089 0.00763285 0)
(1.00876 0.0093439 0)
(1.00008 0.000774836 0)
(1.00092 -0.000996961 0)
(1.00044 0.00015683 0)
(1.00051 -0.00198101 0)
(1.00129 0.000548034 0)
(1.00249 -0.000721865 0)
(1.00171 0.000244349 0)
(1.0027 0.00131621 0)
(1.00434 -0.000203517 0)
(1.00424 0.00136759 0)
(1.00508 0.00127683 0)
(1.00584 0.000749676 0)
(1.00591 0.00184679 0)
(1.00658 0.00220745 0)
(1.0073 0.00246019 0)
(1.00762 0.00367387 0)
(1.00818 0.00488994 0)
(1.00888 0.00605725 0)
(1.00926 0.00752938 0)
(1.00914 0.0091476 0)
(1.00005 0.000727118 0)
(1.0009 -0.000899028 0)
(1.00039 6.99986e-05 0)
(1.00054 -0.00191644 0)
(1.00133 0.000339676 0)
(1.00248 -0.000644346 0)
(1.0018 9.14146e-05 0)
(1.00267 0.00135845 0)
(1.00433 -3.08034e-05 0)
(1.00431 0.00130108 0)
(1.00501 0.0014692 0)
(1.00586 0.000873823 0)
(1.00599 0.00181447 0)
(1.00661 0.0023538 0)
(1.00739 0.00260598 0)
(1.00782 0.0036951 0)
(1.0084 0.00493039 0)
(1.00915 0.00607288 0)
(1.00961 0.00742815 0)
(1.00951 0.00894147 0)
(1.00003 0.000683893 0)
(1.00088 -0.000820406 0)
(1.00035 2.27224e-05 0)
(1.00055 -0.00187241 0)
(1.00137 0.000138251 0)
(1.00247 -0.000568139 0)
(1.00189 -1.35499e-06 0)
(1.00266 0.00141256 0)
(1.00431 0.000158152 0)
(1.00438 0.00122833 0)
(1.00496 0.00160714 0)
(1.00585 0.00101631 0)
(1.00608 0.00178454 0)
(1.00665 0.0024527 0)
(1.00748 0.00275406 0)
(1.00803 0.00372408 0)
(1.00864 0.00495469 0)
(1.00942 0.00607695 0)
(1.00995 0.0073182 0)
(1.00988 0.00871449 0)
(1.00001 0.00064295 0)
(1.00085 -0.000759007 0)
(1.0003 -4.29063e-06 0)
(1.00055 -0.00180884 0)
(1.00142 -5.20152e-05 0)
(1.00247 -0.000474417 0)
(1.00198 -3.92216e-05 0)
(1.00266 0.00144245 0)
(1.00428 0.000361034 0)
(1.00445 0.00115703 0)
(1.00492 0.00169947 0)
(1.00583 0.00117524 0)
(1.00616 0.00177871 0)
(1.00671 0.00251931 0)
(1.00757 0.00289073 0)
(1.00823 0.00375888 0)
(1.00888 0.00495973 0)
(1.00969 0.00606274 0)
(1.01027 0.00719643 0)
(1.01024 0.00846941 0)
(0.999987 0.000606631 0)
(1.00082 -0.000722512 0)
(1.00025 -5.48397e-06 0)
(1.00055 -0.00172343 0)
(1.00147 -0.000219015 0)
(1.00247 -0.000360811 0)
(1.00207 -5.10972e-05 0)
(1.00266 0.00143555 0)
(1.00424 0.000557459 0)
(1.00451 0.00109921 0)
(1.0049 0.00175251 0)
(1.0058 0.00134432 0)
(1.00624 0.00180205 0)
(1.00679 0.00257083 0)
(1.00767 0.00301077 0)
(1.00842 0.00380013 0)
(1.00912 0.00494829 0)
(1.00994 0.00603193 0)
(1.01057 0.00707291 0)
(1.01058 0.00822269 0)
(0.999969 0.00057619 0)
(1.0008 -0.000713269 0)
(1.0002 9.14328e-06 0)
(1.00053 -0.00160391 0)
(1.00153 -0.000366103 0)
(1.00247 -0.000253102 0)
(1.00215 -3.70883e-05 0)
(1.00268 0.00140013 0)
(1.0042 0.000740497 0)
(1.00456 0.00107374 0)
(1.00489 0.00177432 0)
(1.00577 0.00151313 0)
(1.00631 0.00185333 0)
(1.00687 0.00261507 0)
(1.00776 0.00310911 0)
(1.00861 0.00383724 0)
(1.00937 0.00491629 0)
(1.0102 0.00597795 0)
(1.01086 0.00694643 0)
(1.01091 0.0079787 0)
(0.999953 0.000550068 0)
(1.00077 -0.000725699 0)
(1.00016 2.5899e-05 0)
(1.00051 -0.00144213 0)
(1.00159 -0.000492152 0)
(1.00248 -0.000160744 0)
(1.00224 5.38953e-06 0)
(1.00271 0.00134941 0)
(1.00416 0.000910383 0)
(1.00461 0.00109204 0)
(1.00489 0.00177871 0)
(1.00575 0.00166652 0)
(1.00638 0.00192786 0)
(1.00696 0.00265331 0)
(1.00786 0.00318348 0)
(1.00879 0.00385945 0)
(1.00962 0.00486078 0)
(1.01046 0.00589517 0)
(1.01113 0.00681057 0)
(1.01121 0.00773658 0)
(0.999938 0.00052765 0)
(1.00075 -0.000750087 0)
(1.00013 3.72368e-05 0)
(1.00049 -0.00125283 0)
(1.00165 -0.000583022 0)
(1.00251 -6.87133e-05 0)
(1.00232 8.18797e-05 0)
(1.00275 0.00129453 0)
(1.00412 0.00105831 0)
(1.00464 0.00114441 0)
(1.00491 0.00177585 0)
(1.00573 0.00179068 0)
(1.00643 0.00201586 0)
(1.00706 0.00269164 0)
(1.00797 0.00324309 0)
(1.00896 0.00387255 0)
(1.00986 0.004792 0)
(1.01072 0.00579058 0)
(1.0114 0.00666614 0)
(1.01149 0.00750028 0)
(0.999923 0.00050665 0)
(1.00073 -0.000779746 0)
(1.00012 3.57218e-05 0)
(1.00046 -0.00104716 0)
(1.00172 -0.000627111 0)
(1.00255 1.86501e-05 0)
(1.00239 0.000186864 0)
(1.0028 0.0012424 0)
(1.00409 0.00117696 0)
(1.00467 0.0012184 0)
(1.00493 0.00177843 0)
(1.00572 0.00188526 0)
(1.00649 0.00210312 0)
(1.00716 0.00273252 0)
(1.00807 0.0032933 0)
(1.00913 0.00387898 0)
(1.0101 0.00471188 0)
(1.01098 0.00566207 0)
(1.01165 0.00650483 0)
(1.01176 0.00726357 0)
(0.999911 0.000486657 0)
(1.00072 -0.000806624 0)
(1.00011 1.71369e-07 0)
(1.00043 -0.000837143 0)
(1.00178 -0.00061882 0)
(1.0026 0.000111783 0)
(1.00246 0.000323461 0)
(1.00285 0.00120464 0)
(1.00407 0.00126625 0)
(1.00469 0.00130306 0)
(1.00496 0.00179492 0)
(1.00572 0.00195679 0)
(1.00655 0.00217527 0)
(1.00726 0.00276864 0)
(1.00818 0.00333423 0)
(1.00929 0.00387857 0)
(1.01034 0.0046204 0)
(1.01124 0.00550673 0)
(1.01191 0.00631851 0)
(1.012 0.00701916 0)
(0.999899 0.000466752 0)
(1.00071 -0.000826179 0)
(1.00013 -7.06741e-05 0)
(1.00041 -0.000628746 0)
(1.00184 -0.000559989 0)
(1.00266 0.000218523 0)
(1.00253 0.000495384 0)
(1.0029 0.00119715 0)
(1.00406 0.00133423 0)
(1.00471 0.00139417 0)
(1.00499 0.00182847 0)
(1.00573 0.0020162 0)
(1.0066 0.00222826 0)
(1.00737 0.00278965 0)
(1.0083 0.00336297 0)
(1.00943 0.0038728 0)
(1.01055 0.00452204 0)
(1.0115 0.00532777 0)
(1.01216 0.00610285 0)
(1.01224 0.00675981 0)
(0.999889 0.000447149 0)
(1.00069 -0.000845193 0)
(1.00016 -0.000158753 0)
(1.0004 -0.000410972 0)
(1.0019 -0.000451308 0)
(1.00274 0.000321125 0)
(1.0026 0.000679719 0)
(1.00295 0.00122073 0)
(1.00406 0.00138479 0)
(1.00473 0.00148776 0)
(1.00502 0.00188378 0)
(1.00574 0.00208102 0)
(1.00666 0.00227617 0)
(1.00749 0.00279897 0)
(1.00842 0.00338072 0)
(1.00957 0.00386776 0)
(1.01075 0.00442913 0)
(1.01175 0.00513994 0)
(1.01241 0.00586493 0)
(1.01246 0.00648583 0)
(0.999882 0.000437702 0)
(1.00068 -0.000866009 0)
(1.00021 -0.000236672 0)
(1.00041 -0.000178278 0)
(1.00197 -0.000310316 0)
(1.00283 0.000409274 0)
(1.00267 0.000862767 0)
(1.003 0.00127904 0)
(1.00408 0.00142139 0)
(1.00476 0.00156728 0)
(1.00506 0.0019482 0)
(1.00575 0.00214844 0)
(1.00672 0.00231744 0)
(1.0076 0.0027908 0)
(1.00854 0.00337336 0)
(1.0097 0.00385121 0)
(1.01094 0.00433854 0)
(1.01199 0.00494881 0)
(1.01266 0.00560876 0)
(1.01269 0.00619478 0)
(0.999877 0.0004315 0)
(1.00067 -0.000837539 0)
(1.00028 -0.000256327 0)
(1.00043 4.08742e-05 0)
(1.00202 -0.000184313 0)
(1.00293 0.000446135 0)
(1.00275 0.00101704 0)
(1.00304 0.00136874 0)
(1.0041 0.00145769 0)
(1.0048 0.00162895 0)
(1.0051 0.00201638 0)
(1.00577 0.00222326 0)
(1.00677 0.00235951 0)
(1.00773 0.00276911 0)
(1.00868 0.00333566 0)
(1.00983 0.00381044 0)
(1.0111 0.00423982 0)
(1.0122 0.00475061 0)
(1.01289 0.00533068 0)
(1.01291 0.00587418 0)
(0.999873 0.000387699 0)
(1.00066 -0.000702761 0)
(1.00036 -0.000290979 0)
(1.00046 0.00019345 0)
(1.00207 -6.20398e-05 0)
(1.00304 0.000454653 0)
(1.00284 0.00114479 0)
(1.00307 0.0014855 0)
(1.00411 0.00150407 0)
(1.00485 0.00166371 0)
(1.00515 0.00206925 0)
(1.00579 0.00229459 0)
(1.00681 0.0024008 0)
(1.00784 0.00273482 0)
(1.00882 0.00326932 0)
(1.00996 0.00374319 0)
(1.01124 0.00413371 0)
(1.01238 0.00455595 0)
(1.01311 0.0050484 0)
(1.01312 0.0055382 0)
(0.999874 0.000382573 0)
(1.00064 -0.000634744 0)
(1.00045 -0.000273418 0)
(1.0005 0.000387469 0)
(1.00211 0.000109199 0)
(1.00315 0.000473824 0)
(1.00294 0.00125474 0)
(1.00309 0.00163451 0)
(1.00411 0.00159038 0)
(1.00489 0.00170131 0)
(1.00521 0.00212035 0)
(1.0058 0.00237494 0)
(1.00684 0.00245733 0)
(1.00793 0.00270497 0)
(1.00895 0.00318628 0)
(1.01008 0.00365255 0)
(1.01136 0.00401815 0)
(1.01254 0.00436674 0)
(1.0133 0.00476972 0)
(1.01332 0.00519364 0)
(0.999875 0.000389531 0)
(1.00063 -0.000574396 0)
(1.00055 -0.000240422 0)
(1.00055 0.00057832 0)
(1.00213 0.000307579 0)
(1.00326 0.000509693 0)
(1.00306 0.00134014 0)
(1.00313 0.0017968 0)
(1.0041 0.00171207 0)
(1.00494 0.00174535 0)
(1.00527 0.002156 0)
(1.00582 0.00244666 0)
(1.00685 0.00251847 0)
(1.00801 0.00267961 0)
(1.00909 0.0030843 0)
(1.01021 0.00352986 0)
(1.01147 0.00387912 0)
(1.01266 0.00417152 0)
(1.01346 0.0044907 0)
(1.01349 0.00484097 0)
(0.999881 0.000354191 0)
(1.00061 -0.000400258 0)
(1.00066 -0.000244345 0)
(1.00062 0.000705631 0)
(1.00214 0.000519261 0)
(1.00337 0.000564745 0)
(1.0032 0.00139195 0)
(1.00316 0.00194281 0)
(1.00408 0.00184864 0)
(1.00497 0.00179253 0)
(1.00534 0.00216166 0)
(1.00584 0.00249239 0)
(1.00684 0.00257144 0)
(1.00806 0.00266096 0)
(1.0092 0.00297023 0)
(1.01033 0.00337673 0)
(1.01157 0.00371274 0)
(1.01276 0.003967 0)
(1.01359 0.00421591 0)
(1.01364 0.00449237 0)
(0.999887 0.000334651 0)
(1.00059 -0.00021963 0)
(1.00076 -0.000201096 0)
(1.00071 0.000828437 0)
(1.00214 0.000752244 0)
(1.00345 0.000652543 0)
(1.00334 0.00142499 0)
(1.00321 0.00207975 0)
(1.00404 0.00201489 0)
(1.00498 0.00187437 0)
(1.00541 0.0021638 0)
(1.00587 0.00252116 0)
(1.00683 0.00261933 0)
(1.00808 0.00265017 0)
(1.00929 0.00285171 0)
(1.01045 0.00319135 0)
(1.01166 0.00350334 0)
(1.01284 0.00372953 0)
(1.01367 0.00392251 0)
(1.01375 0.00412949 0)
(0.999897 0.000318001 0)
(1.00056 -5.78479e-05 0)
(1.00086 -0.000137303 0)
(1.0008 0.000926959 0)
(1.00214 0.000997932 0)
(1.00352 0.00078816 0)
(1.0035 0.00146246 0)
(1.00327 0.00220438 0)
(1.00399 0.00220248 0)
(1.00496 0.00198635 0)
(1.00547 0.00216731 0)
(1.00591 0.00252039 0)
(1.0068 0.00265198 0)
(1.00806 0.00264198 0)
(1.00933 0.00274185 0)
(1.01053 0.00299248 0)
(1.01173 0.00326396 0)
(1.01289 0.00346622 0)
(1.01372 0.00361802 0)
(1.01382 0.00376547 0)
(0.999908 0.000313818 0)
(1.00053 6.19794e-05 0)
(1.00095 -3.10266e-05 0)
(1.00091 0.00102604 0)
(1.00213 0.00125798 0)
(1.00356 0.000966145 0)
(1.00365 0.00150752 0)
(1.00335 0.00230042 0)
(1.00393 0.00240084 0)
(1.00491 0.00213304 0)
(1.0055 0.00219918 0)
(1.00595 0.00250911 0)
(1.00677 0.00267694 0)
(1.00801 0.00264597 0)
(1.00934 0.00265714 0)
(1.01059 0.00280258 0)
(1.01179 0.00301156 0)
(1.01293 0.00317934 0)
(1.01375 0.0032957 0)
(1.01385 0.00339205 0)
(0.99992 0.000299767 0)
(1.0005 0.00021813 0)
(1.00103 8.01086e-05 0)
(1.00103 0.00110852 0)
(1.00213 0.00151982 0)
(1.00357 0.00119912 0)
(1.00379 0.00158858 0)
(1.00345 0.00238212 0)
(1.00388 0.00260123 0)
(1.00484 0.00231176 0)
(1.00551 0.00226332 0)
(1.00598 0.00248987 0)
(1.00675 0.00267046 0)
(1.00794 0.00263043 0)
(1.0093 0.00257089 0)
(1.0106 0.00260696 0)
(1.01182 0.00273649 0)
(1.01294 0.00285156 0)
(1.01374 0.00293181 0)
(1.01385 0.00298471 0)
(0.999933 0.000279859 0)
(1.00046 0.000394217 0)
(1.00109 0.000208658 0)
(1.00117 0.00119273 0)
(1.00213 0.00176248 0)
(1.00356 0.00147176 0)
(1.00391 0.00170163 0)
(1.00357 0.00245216 0)
(1.00384 0.00277462 0)
(1.00473 0.00251321 0)
(1.00548 0.00235464 0)
(1.00599 0.00247933 0)
(1.00672 0.00263392 0)
(1.00785 0.00259458 0)
(1.00921 0.00247997 0)
(1.01055 0.00241994 0)
(1.01181 0.00245529 0)
(1.01292 0.00250489 0)
(1.01371 0.00254037 0)
(1.01381 0.00255291 0)
(0.999946 0.000288282 0)
(1.00042 0.000533833 0)
(1.00114 0.000376343 0)
(1.0013 0.00127064 0)
(1.00215 0.001965 0)
(1.00352 0.0017541 0)
(1.00399 0.00184638 0)
(1.00368 0.00252333 0)
(1.00382 0.00292245 0)
(1.00461 0.00272928 0)
(1.0054 0.00248381 0)
(1.00597 0.00249379 0)
(1.00667 0.00258791 0)
(1.00774 0.0025422 0)
(1.00907 0.00238254 0)
(1.01044 0.00223835 0)
(1.01173 0.00217107 0)
(1.01285 0.00214382 0)
(1.01363 0.00212201 0)
(1.01373 0.00209037 0)
(0.99996 0.000278378 0)
(1.00038 0.000691473 0)
(1.00117 0.000585059 0)
(1.00143 0.00137464 0)
(1.00218 0.00216859 0)
(1.00347 0.00206676 0)
(1.00404 0.0020615 0)
(1.00379 0.00262585 0)
(1.0038 0.00307493 0)
(1.00447 0.00295018 0)
(1.00527 0.00265755 0)
(1.0059 0.00254218 0)
(1.00659 0.00255362 0)
(1.0076 0.00247432 0)
(1.00889 0.00227756 0)
(1.01027 0.00205301 0)
(1.01159 0.00188897 0)
(1.01273 0.00177275 0)
(1.01351 0.00168623 0)
(1.0136 0.0016025 0)
(0.999972 0.000285504 0)
(1.00035 0.000823331 0)
(1.00118 0.000811094 0)
(1.00155 0.00149909 0)
(1.00221 0.00235729 0)
(1.0034 0.00237981 0)
(1.00405 0.00232183 0)
(1.00387 0.00275587 0)
(1.00379 0.00321858 0)
(1.00432 0.00316314 0)
(1.00509 0.00285214 0)
(1.00577 0.00262437 0)
(1.00647 0.00253592 0)
(1.00743 0.00239835 0)
(1.00866 0.00215875 0)
(1.01003 0.00185936 0)
(1.01137 0.00160185 0)
(1.01253 0.00139029 0)
(1.01332 0.00122947 0)
(1.01342 0.00108686 0)
(0.999983 0.000317032 0)
(1.00032 0.000927998 0)
(1.00118 0.00104071 0)
(1.00165 0.00163737 0)
(1.00226 0.0025271 0)
(1.00333 0.0026918 0)
(1.00402 0.00261488 0)
(1.00393 0.00293089 0)
(1.00378 0.0033675 0)
(1.00416 0.00337543 0)
(1.00487 0.0030661 0)
(1.00558 0.00274568 0)
(1.00629 0.00254455 0)
(1.0072 0.00232636 0)
(1.00838 0.00202599 0)
(1.00972 0.00165305 0)
(1.01106 0.00129859 0)
(1.01224 0.000987215 0)
(1.01305 0.000739809 0)
(1.01317 0.000530627 0)
(0.999992 0.000329542 0)
(1.0003 0.00106544 0)
(1.00116 0.00128532 0)
(1.00173 0.00182087 0)
(1.00231 0.0027145 0)
(1.00326 0.00300927 0)
(1.00396 0.00295514 0)
(1.00395 0.00315816 0)
(1.00376 0.00354619 0)
(1.004 0.00359472 0)
(1.00462 0.003304 0)
(1.00532 0.00290786 0)
(1.00604 0.0025937 0)
(1.00691 0.00227041 0)
(1.00802 0.00189124 0)
(1.00932 0.00143333 0)
(1.01066 0.000976687 0)
(1.01186 0.000556717 0)
(1.01269 0.00020877 0)
(1.01285 -8.12611e-05 0)
(1 0.00035872 0)
(1.00027 0.00119098 0)
(1.00113 0.00153522 0)
(1.00179 0.00203295 0)
(1.00236 0.00290093 0)
(1.00318 0.00331032 0)
(1.00386 0.00331291 0)
(1.00392 0.00343875 0)
(1.00372 0.00376056 0)
(1.00382 0.00384014 0)
(1.00432 0.00357064 0)
(1.00498 0.00312412 0)
(1.00569 0.00269216 0)
(1.00653 0.00224945 0)
(1.00758 0.00176636 0)
(1.00882 0.00120333 0)
(1.01013 0.000632103 0)
(1.01135 8.49083e-05 0)
(1.01222 -0.000382552 0)
(1.01241 -0.00078068 0)
(1.00001 0.000401818 0)
(1.00026 0.00128728 0)
(1.00109 0.00177707 0)
(1.00182 0.00227156 0)
(1.00241 0.00309749 0)
(1.00312 0.00359404 0)
(1.00374 0.00368299 0)
(1.00385 0.00376485 0)
(1.00364 0.00402189 0)
(1.00363 0.00411763 0)
(1.00399 0.00387826 0)
(1.00457 0.00339872 0)