/*--------------------------------*- C++ -*----------------------------------*\
| =========                 |                                                 |
| \\      /  F ield         | OpenFOAM: The Open Source CFD Toolbox           |
|  \\    /   O peration     | Version:  v2012                                 |
|   \\  /    A nd           | Website:  www.openfoam.com                      |
|    \\/     M anipulation  |                                                 |
\*---------------------------------------------------------------------------*/
FoamFile
{
    version     2.0;
    format      ascii;
    class       surfaceScalarField;
    location    "1.45";
    object      phi;
}
// * * * * * * * * * * * * * * * * * * * * * * * * * * * * * * * * * * * * * //

dimensions      [0 3 -1 0 0 0 0];
oriented        oriented;


internalField   nonuniform List<scalar> 
34900
(
1.17445e-06
6.27831e-07
1.14661e-06
-7.7034e-07
1.16407e-06
4.53285e-07
1.14216e-06
-1.48943e-07
1.15088e-06
-6.33076e-08
1.14505e-06
8.5217e-08
1.15225e-06
-1.04643e-08
1.14461e-06
4.39564e-09
1.15208e-06
3.66779e-08
1.14471e-06
9.7615e-09
1.15186e-06
2.86488e-08
1.14376e-06
-2.32435e-09
1.15141e-06
3.45439e-08
1.14189e-06
-2.90758e-09
1.14984e-06
3.18113e-08
1.13834e-06
-1.14503e-08
1.1464e-06
3.33148e-08
1.13275e-06
-1.91513e-08
1.13601e-06
5.3037e-08
3.1793e-09
1.09929e-06
1.22564e-06
6.26452e-07
1.19777e-06
-7.42474e-07
1.2123e-06
4.38763e-07
1.19441e-06
-1.31056e-07
1.20121e-06
-7.01041e-08
1.20008e-06
8.63466e-08
1.20512e-06
-1.5505e-08
1.20106e-06
8.45247e-09
1.20498e-06
3.27569e-08
1.2027e-06
1.2044e-08
1.20444e-06
2.69078e-08
1.20352e-06
-1.40345e-09
1.20311e-06
3.49504e-08
1.2042e-06
-3.99409e-09
1.19983e-06
3.61804e-08
1.20404e-06
-1.5663e-08
1.19335e-06
4.40055e-08
1.20204e-06
-2.7838e-08
1.17839e-06
7.6689e-08
-9.80392e-10
1.18255e-06
1.27998e-06
6.29258e-07
1.25228e-06
-7.14779e-07
1.26162e-06
4.29425e-07
1.25104e-06
-1.2048e-07
1.25262e-06
-7.16787e-08
1.25832e-06
8.06498e-08
1.25894e-06
-1.61306e-08
1.26134e-06
6.05131e-09
1.25945e-06
3.46506e-08
1.26423e-06
7.26429e-09
1.25971e-06
3.14283e-08
1.26577e-06
-7.47e-09
1.25929e-06
4.14393e-08
1.26639e-06
-1.10989e-08
1.2578e-06
4.47727e-08
1.2648e-06
-2.26619e-08
1.25499e-06
5.38083e-08
1.25906e-06
-3.19044e-08
1.24768e-06
8.80659e-08
1.16829e-08
1.23502e-06
1.33863e-06
6.34733e-07
1.31297e-06
-6.89126e-07
1.3157e-06
4.26697e-07
1.31417e-06
-1.18947e-07
1.30891e-06
-6.64239e-08
1.31974e-06
6.98239e-08
1.31703e-06
-1.34238e-08
1.32362e-06
-5.3218e-10
1.31868e-06
3.95885e-08
1.32654e-06
-5.99088e-10
1.32073e-06
3.72416e-08
1.32777e-06
-1.45082e-08
1.32234e-06
4.68719e-08
1.32795e-06
-1.67126e-08
1.32303e-06
4.96897e-08
1.32616e-06
-2.57907e-08
1.32217e-06
5.77999e-08
1.32054e-06
-3.02762e-08
1.31599e-06
9.26194e-08
2.80802e-08
1.29959e-06
1.40223e-06
6.40853e-07
1.38006e-06
-6.66949e-07
1.37718e-06
4.29569e-07
1.38306e-06
-1.24823e-07
1.37279e-06
-5.61538e-08
1.38499e-06
5.76214e-08
1.38175e-06
-1.01801e-08
1.38879e-06
-7.57385e-09
1.38449e-06
4.38865e-08
1.39152e-06
-7.63149e-09
1.38799e-06
4.07747e-08
1.393e-06
-1.95133e-08
1.39075e-06
4.91231e-08
1.39387e-06
-1.9837e-08
1.3921e-06
5.14647e-08
1.39299e-06
-2.66824e-08
1.39136e-06
5.94235e-08
1.38771e-06
-2.66217e-08
1.38504e-06
9.52888e-08
4.45579e-08
1.36856e-06
1.47085e-06
6.45682e-07
1.45268e-06
-6.48778e-07
1.44694e-06
4.35305e-07
1.45645e-06
-1.3433e-07
1.44474e-06
-4.44447e-08
1.45517e-06
4.71871e-08
1.45332e-06
-8.32912e-09
1.4587e-06
-1.29496e-08
1.45652e-06
4.60643e-08
1.46155e-06
-1.26639e-08
1.46038e-06
4.19485e-08
1.46361e-06
-2.27417e-08
1.46326e-06
4.94733e-08
1.46515e-06
-2.17263e-08
1.46461e-06
5.20058e-08
1.4646e-06
-2.66759e-08
1.46387e-06
6.01564e-08
1.45888e-06
-2.16325e-08
1.45757e-06
9.65919e-08
6.11643e-08
1.44097e-06
1.54398e-06
6.47917e-07
1.52956e-06
-6.34357e-07
1.52393e-06
4.40932e-07
1.53339e-06
-1.43791e-07
1.52314e-06
-3.41863e-08
1.53067e-06
3.96482e-08
1.53025e-06
-7.90932e-09
1.53382e-06
-1.65163e-08
1.53324e-06
4.66455e-08
1.53677e-06
-1.61908e-08
1.53672e-06
4.19912e-08
1.53903e-06
-2.50487e-08
1.53936e-06
4.91445e-08
1.54064e-06
-2.30101e-08
1.54061e-06
5.20381e-08
1.53982e-06
-2.58835e-08
1.53983e-06
6.01445e-08
1.53341e-06
-1.52079e-08
1.53334e-06
9.66567e-08
7.75915e-08
1.51691e-06
1.62087e-06
6.4718e-07
1.6095e-06
-6.22995e-07
1.60595e-06
4.4449e-07
1.61322e-06
-1.51065e-07
1.60553e-06
-2.649e-08
1.61065e-06
3.45239e-08
1.61076e-06
-8.0169e-09
1.61317e-06
-1.89295e-08
1.61324e-06
4.65722e-08
1.61591e-06
-1.88606e-08
1.61615e-06
4.17555e-08
1.61793e-06
-2.68302e-08
1.61848e-06
4.85932e-08
1.61922e-06
-2.37461e-08
1.61959e-06
5.1666e-08
1.61785e-06
-2.41475e-08
1.61863e-06
5.93692e-08
1.6108e-06
-7.37816e-09
1.61166e-06
9.57993e-08
9.32986e-08
1.59595e-06
1.70089e-06
6.43864e-07
1.69175e-06
-6.13851e-07
1.69089e-06
4.45341e-07
1.69547e-06
-1.55645e-07
1.69012e-06
-2.11355e-08
1.69379e-06
3.0848e-08
1.69373e-06
-7.95479e-09
1.69554e-06
-2.07414e-08
1.69573e-06
4.63884e-08
1.69788e-06
-2.10155e-08
1.69812e-06
4.15239e-08
1.69945e-06
-2.81616e-08
1.70017e-06
4.7873e-08
1.70027e-06
-2.38541e-08
1.70112e-06
5.08206e-08
1.69833e-06
-2.13613e-08
1.69986e-06
5.78434e-08
1.69081e-06
1.67364e-09
1.69219e-06
9.44155e-08
1.0776e-07
1.67773e-06
1.78389e-06
6.38697e-07
1.77611e-06
-6.06069e-07
1.7777e-06
4.43744e-07
1.78002e-06
-1.57959e-07
1.77634e-06
-1.74587e-08
1.77929e-06
2.78965e-08
1.7789e-06
-7.5644e-09
1.78038e-06
-2.22205e-08
1.78053e-06
4.62402e-08
1.7823e-06
-2.27889e-08
1.78255e-06
4.12764e-08
1.78341e-06
-2.90233e-08
1.78439e-06
4.68919e-08
1.7838e-06
-2.32595e-08
1.78523e-06
4.93919e-08
1.78137e-06
-1.75077e-08
1.78357e-06
5.56453e-08
1.77361e-06
1.16305e-08
1.77507e-06
9.29584e-08
1.20521e-07
1.76231e-06
1.87011e-06
6.32335e-07
1.86292e-06
-5.98878e-07
1.8664e-06
4.40266e-07
1.8671e-06
-1.58665e-07
1.86454e-06
-1.48984e-08
1.86711e-06
2.53292e-08
1.86656e-06
-7.01453e-09
1.8678e-06
-2.34609e-08
1.86797e-06
4.60733e-08
1.8694e-06
-2.42216e-08
1.8698e-06
4.08822e-08
1.87015e-06
-2.93735e-08
1.87153e-06
4.55124e-08
1.87018e-06
-2.19117e-08
1.87228e-06
4.72913e-08
1.86744e-06
-1.2665e-08
1.87013e-06
5.2949e-08
1.85969e-06
2.20698e-08
1.86075e-06
9.19012e-08
1.31239e-07
1.85003e-06
1.95999e-06
6.25187e-07
1.95278e-06
-5.91673e-07
1.95765e-06
4.35401e-07
1.95725e-06
-1.58263e-07
1.95549e-06
-1.31385e-08
1.95775e-06
2.30644e-08
1.95728e-06
-6.54853e-09
1.9583e-06
-2.44733e-08
1.95861e-06
4.5763e-08
1.95969e-06
-2.53019e-08
1.96039e-06
4.01837e-08
1.96017e-06
-2.91579e-08
1.96208e-06
4.35996e-08
1.95996e-06
-1.97876e-08
1.96275e-06
4.4496e-08
1.9571e-06
-7.00736e-09
1.96001e-06
5.00318e-08
1.94957e-06
3.25152e-08
1.94982e-06
9.16497e-08
1.39747e-07
1.94131e-06
2.05393e-06
6.17441e-07
2.04632e-06
-5.84054e-07
2.05227e-06
4.29449e-07
2.05102e-06
-1.57011e-07
2.04994e-06
-1.20617e-08
2.05186e-06
2.11451e-08
2.05168e-06
-6.37076e-09
2.05242e-06
-2.52161e-08
2.05302e-06
4.51693e-08
2.05369e-06
-2.59778e-08
2.05485e-06
3.90301e-08
2.054e-06
-2.83164e-08
2.05655e-06
4.10517e-08
2.05367e-06
-1.69048e-08
2.05709e-06
4.10767e-08
2.05088e-06
-7.96057e-10
2.05366e-06
4.72482e-08
2.04367e-06
4.25055e-08
2.04284e-06
9.24771e-08
1.46086e-07
2.03651e-06
2.15229e-06
6.09157e-07
2.14403e-06
-5.75794e-07
2.15094e-06
4.22531e-07
2.14892e-06
-1.54985e-07
2.14852e-06
-1.1669e-08
2.15001e-06
1.9664e-08
2.15027e-06
-6.63484e-09
2.15066e-06
-2.56112e-08
2.15168e-06
4.41566e-08
2.15187e-06
-2.61715e-08
2.15361e-06
3.72924e-08
2.15209e-06
-2.68001e-08
2.15532e-06
3.78232e-08
2.15176e-06
-1.33461e-08
2.15563e-06
3.72079e-08
2.14919e-06
5.64418e-09
2.15146e-06
4.49769e-08
2.14231e-06
5.16572e-08
2.14029e-06
9.44943e-08
1.50482e-07
2.1359e-06
2.25531e-06
6.00338e-07
2.24629e-06
-5.66775e-07
2.25416e-06
4.14662e-07
2.25134e-06
-1.52166e-07
2.25169e-06
-1.20197e-08
2.25262e-06
1.87316e-08
2.25345e-06
-7.46357e-09
2.2534e-06
-2.55593e-08
2.25495e-06
4.26011e-08
2.25458e-06
-2.58005e-08
2.257e-06
3.48761e-08
2.2548e-06
-2.45962e-08
2.25867e-06
3.39448e-08
2.25461e-06
-9.2793e-09
2.25867e-06
3.31459e-08
2.25233e-06
1.19786e-08
2.25376e-06
4.35512e-08
2.24571e-06
5.97091e-08
2.24255e-06
9.76533e-08
1.53307e-07
2.23973e-06
2.36324e-06
5.90971e-07
2.3534e-06
-5.56933e-07
2.36226e-06
4.05804e-07
2.35859e-06
-1.48493e-07
2.35976e-06
-1.31982e-08
2.36003e-06
1.84616e-08
2.36154e-06
-8.96474e-09
2.36093e-06
-2.49575e-08
2.36314e-06
4.03996e-08
2.36214e-06
-2.48003e-08
2.36528e-06
3.17339e-08
2.36243e-06
-2.17516e-08
2.36684e-06
2.95342e-08
2.36252e-06
-4.95923e-09
2.36646e-06
2.92069e-08
2.36055e-06
1.78957e-08
2.36089e-06
4.32043e-08
2.35404e-06
6.65621e-08
2.34994e-06
1.0175e-07
1.5501e-07
2.34824e-06
2.47633e-06
5.81037e-07
2.46561e-06
-5.46218e-07
2.47552e-06
3.95901e-07
2.47092e-06
-1.43897e-07
2.47302e-06
-1.52976e-08
2.47252e-06
1.8964e-08
2.47479e-06
-1.12358e-08
2.47355e-06
-2.37154e-08
2.47647e-06
3.74778e-08
2.47481e-06
-2.31448e-08
2.47866e-06
2.78837e-08
2.47531e-06
-1.83943e-08
2.48004e-06
2.47989e-08
2.47579e-06
-7.05653e-10
2.47928e-06
2.57182e-08
2.47403e-06
2.31459e-08
2.4732e-06
4.4033e-08
2.46747e-06
7.22919e-08
2.46277e-06
1.0645e-07
1.56068e-07
2.46171e-06
2.59482e-06
5.70516e-07
2.58318e-06
-5.34584e-07
2.59419e-06
3.84889e-07
2.5886e-06
-1.38302e-07
2.59171e-06
-1.84122e-08
2.59034e-06
2.03385e-08
2.59346e-06
-1.43597e-08
2.59152e-06
-2.17691e-08
2.59519e-06
3.38051e-08
2.59291e-06
-2.08673e-08
2.59737e-06
2.34254e-08
2.59372e-06
-1.47441e-08
2.5985e-06
2.00216e-08
2.59465e-06
3.14055e-09
2.59741e-06
2.29617e-08
2.59297e-06
2.75798e-08
2.59103e-06
4.59798e-08
2.5862e-06
7.71206e-08
2.58129e-06
1.11357e-07
1.56914e-07
2.58044e-06
2.71896e-06
5.59386e-07
2.70636e-06
-5.21985e-07
2.71855e-06
3.72699e-07
2.71188e-06
-1.31631e-07
2.7161e-06
-2.2633e-08
2.71377e-06
2.26686e-08
2.7178e-06
-1.83947e-08
2.71513e-06
-1.90969e-08
2.71953e-06
2.94099e-08
2.71674e-06
-1.80789e-08
2.72161e-06
1.85514e-08
2.71797e-06
-1.1105e-08
2.72247e-06
1.55256e-08
2.71933e-06
6.27857e-09
2.72119e-06
2.11069e-08
2.71758e-06
3.11861e-08
2.71471e-06
4.88505e-08
2.71049e-06
8.1339e-08
2.70574e-06
1.16112e-07
1.57872e-07
2.70478e-06
2.84903e-06
5.47625e-07
2.83542e-06
-5.08372e-07
2.84886e-06
3.59259e-07
2.84103e-06
-1.2381e-07
2.84644e-06
-2.80418e-08
2.8431e-06
2.60127e-08
2.84807e-06
-2.33619e-08
2.8447e-06
-1.57344e-08
2.84972e-06
2.43955e-08
2.84662e-06
-1.49809e-08
2.85163e-06
1.35437e-08
2.84836e-06
-7.83977e-09
2.85227e-06
1.16198e-08
2.85003e-06
8.51864e-09
2.85097e-06
2.01619e-08
2.84807e-06
3.4085e-08
2.84455e-06
5.23788e-08
2.84067e-06
8.52123e-08
2.8363e-06
1.20487e-07
1.59101e-07
2.83507e-06
2.98531e-06
5.35212e-07
2.97063e-06
-4.93691e-07
2.9854e-06
3.44492e-07
2.97635e-06
-1.14769e-07
2.98302e-06
-3.4705e-08
2.97863e-06
3.03947e-08
2.9845e-06
-2.92292e-08
2.98056e-06
-1.1794e-08
2.986e-06
1.89592e-08
2.98289e-06
-1.18746e-08
2.98768e-06
8.75602e-09
2.98516e-06
-5.31973e-09
2.98824e-06
8.54327e-09
2.98694e-06
9.81751e-09
2.98713e-06
1.99685e-08
2.98474e-06
3.64802e-08
2.98083e-06
5.62803e-08
2.97711e-06
8.89343e-08
2.97316e-06
1.24434e-07
1.60604e-07
2.97166e-06
3.12809e-06
5.22126e-07
3.11229e-06
-4.77885e-07
3.12846e-06
3.28316e-07
3.11814e-06
-1.04447e-07
3.1261e-06
-4.26631e-08
3.1207e-06
3.57896e-08
3.12737e-06
-3.58946e-08
3.12306e-06
-7.48116e-09
3.12861e-06
1.34014e-08
3.12589e-06
-9.15002e-09
3.13007e-06
4.57164e-09
3.12861e-06
-3.85649e-09
3.13076e-06
6.39103e-09
3.13028e-06
1.03023e-08
3.13001e-06
2.02398e-08
3.12791e-06
3.85754e-08
3.12392e-06
6.02764e-08
3.12022e-06
9.26305e-08
3.11655e-06
1.28103e-07
1.62275e-07
3.11488e-06
3.27769e-06
5.08348e-07
3.26069e-06
-4.60891e-07
3.27836e-06
3.10648e-07
3.26672e-06
-9.28046e-08
3.27597e-06
-5.19175e-08
3.26966e-06
4.21072e-08
3.27693e-06
-4.31671e-08
3.27255e-06
-3.10765e-09
3.27783e-06
8.1217e-09
3.27594e-06
-7.25552e-09
3.27917e-06
1.34076e-09
3.27892e-06
-3.6017e-09
3.28028e-06
5.02275e-09
3.28032e-06
1.02661e-08
3.27994e-06
2.06225e-08
3.27804e-06
4.04698e-08
3.27419e-06
6.41259e-08
3.27047e-06
9.63535e-08
3.26676e-06
1.31809e-07
1.64041e-07
3.265e-06
3.43442e-06
4.93863e-07
3.41617e-06
-4.4264e-07
3.4354e-06
2.91409e-07
3.42244e-06
-7.98359e-08
3.43293e-06
-6.24149e-08
3.42587e-06
4.91734e-08
3.43345e-06
-5.07498e-08
3.42943e-06
9.07317e-10
3.43397e-06
3.58313e-09
3.43333e-06
-6.61087e-09
3.43539e-06
-7.25013e-10
3.43627e-06
-4.48195e-09
3.43723e-06
4.07155e-09
3.43742e-06
1.00725e-08
3.43725e-06
2.07898e-08
3.43561e-06
4.21095e-08
3.43203e-06
6.77098e-08
3.42831e-06
1.00077e-07
3.42436e-06
1.35756e-07
1.66198e-07
3.4222e-06
3.59861e-06
4.7866e-07
3.57904e-06
-4.23066e-07
3.59991e-06
2.70536e-07
3.58566e-06
-6.55859e-08
3.59727e-06
-7.40231e-08
3.58974e-06
5.67049e-08
3.59722e-06
-5.82281e-08
3.59407e-06
4.05732e-09
3.5974e-06
2.54199e-10
3.5983e-06
-7.51606e-09
3.59923e-06
-1.65074e-09
3.60092e-06
-6.17289e-09
3.60195e-06
3.03813e-09
3.60201e-06
1.00142e-08
3.60222e-06
2.05824e-08
3.60065e-06
4.36739e-08
3.59704e-06
7.13253e-08
3.59333e-06
1.03781e-07
3.58985e-06
1.39236e-07
1.69589e-07
3.58646e-06
3.77063e-06
4.62734e-07
3.74968e-06
-4.0211e-07
3.77221e-06
2.47999e-07
3.7568e-06
-5.01772e-08
3.76929e-06
-8.65083e-08
3.76169e-06
6.43064e-08
3.76856e-06
-6.50987e-08
3.7668e-06
5.8131e-09
3.76854e-06
-1.48455e-09
3.77109e-06
-1.00621e-08
3.77116e-06
-1.72486e-09
3.77315e-06
-8.16597e-09
3.77472e-06
1.46997e-09
3.77446e-06
1.028e-08
3.77448e-06
2.05629e-08
3.77156e-06
4.65888e-08
3.76724e-06
7.56474e-08
3.76357e-06
1.07451e-07
3.76167e-06
1.41137e-07
1.73601e-07
3.75766e-06
3.95083e-06
4.4609e-07
3.92846e-06
-3.79739e-07
3.95263e-06
2.23831e-07
3.93629e-06
-3.38341e-08
3.9493e-06
-9.95184e-08
3.94214e-06
7.14657e-08
3.94783e-06
-7.07877e-08
3.94797e-06
5.67374e-09
3.9479e-06
-1.41476e-09
3.95189e-06
-1.40542e-08
3.95164e-06
-1.47823e-09
3.95332e-06
-9.8439e-09
3.95553e-06
-7.41659e-10
3.95433e-06
1.14789e-08
3.95138e-06
2.35122e-08
3.94709e-06
5.08779e-08
3.9424e-06
8.03443e-08
3.9388e-06
1.11044e-07
3.93742e-06
1.42524e-07
1.75036e-07
3.93598e-06
4.1396e-06
4.28744e-07
4.11582e-06
-3.55962e-07
4.14149e-06
1.9816e-07
4.12456e-06
-1.69035e-08
4.13762e-06
-1.12581e-07
4.13151e-06
7.75782e-08
4.13543e-06
-7.47034e-08
4.13785e-06
3.25262e-09
4.13596e-06
4.69462e-10
4.14095e-06
-1.90411e-08
4.14096e-06
-1.48515e-09
4.14153e-06
-1.04175e-08
4.14355e-06
-2.75798e-09
4.13925e-06
1.57749e-08
4.13376e-06
2.89977e-08
4.1295e-06
5.51426e-08
4.12527e-06
8.45743e-08
4.12187e-06
1.14445e-07
4.1203e-06
1.44094e-07
1.73469e-07
4.12187e-06
4.33732e-06
4.10728e-07
4.31221e-06
-3.30853e-07
4.33913e-06
1.71243e-07
4.32209e-06
1.34305e-10
4.33463e-06
-1.25121e-07
4.33021e-06
8.20005e-08
4.33183e-06
-7.63232e-08
4.33669e-06
-1.6142e-09
4.33323e-06
3.92933e-09
4.33854e-06
-2.43499e-08
4.33898e-06
-1.91856e-09
4.33719e-06
-8.62904e-09
4.33675e-06
-2.31764e-09
4.33113e-06
2.13887e-08
4.32489e-06
3.5244e-08
4.32098e-06
5.90525e-08
4.31752e-06
8.80357e-08
4.31452e-06
1.17442e-07
4.31324e-06
1.45369e-07
1.70576e-07
4.31614e-06
4.54441e-06
3.9209e-07
4.51812e-06
-3.04564e-07
4.54587e-06
1.43493e-07
4.52933e-06
1.66815e-08
4.54072e-06
-1.36517e-07
4.53857e-06
8.41557e-08
4.53757e-06
-7.53306e-08
4.54468e-06
-8.72358e-09
4.54014e-06
8.46891e-09
4.54465e-06
-2.88615e-08
4.54501e-06
-2.2687e-09
4.53995e-06
-3.57633e-09
4.53751e-06
1.27105e-10
4.53247e-06
2.64232e-08
4.52605e-06
4.1667e-08
4.52232e-06
6.27875e-08
4.51959e-06
9.07566e-08
4.51721e-06
1.19831e-07
4.51679e-06
1.45783e-07
1.67847e-07
4.51952e-06
4.76131e-06
3.72898e-07
4.73408e-06
-2.77337e-07
4.76208e-06
1.15489e-07
4.7467e-06
3.20613e-08
4.75636e-06
-1.4617e-07
4.75687e-06
8.36459e-08
4.75325e-06
-7.17147e-08
4.76198e-06
-1.74543e-08
4.75687e-06
1.3585e-08
4.7591e-06
-3.10932e-08
4.75887e-06
-2.04127e-09
4.75145e-06
3.84354e-09
4.74793e-06
3.64565e-09
4.744e-06
3.03575e-08
4.7378e-06
4.78633e-08
4.73391e-06
6.66759e-08
4.73179e-06
9.28787e-08
4.73027e-06
1.21353e-07
4.73054e-06
1.45508e-07
1.65511e-07
4.73288e-06
4.98846e-06
3.53238e-07
4.96061e-06
-2.49486e-07
4.98816e-06
8.79354e-08
4.97461e-06
4.5616e-08
4.98205e-06
-1.53618e-07
4.98532e-06
8.03756e-08
4.97939e-06
-6.57772e-08
4.98874e-06
-2.68125e-08
4.98324e-06
1.90944e-08
4.98216e-06
-3.00159e-08
4.98179e-06
-1.67471e-09
4.97339e-06
1.22413e-08
4.96885e-06
8.18507e-09
4.96608e-06
3.31346e-08
4.96043e-06
5.35075e-08
4.95621e-06
7.09038e-08
4.95452e-06
9.45598e-08
4.95398e-06
1.219e-07
4.95457e-06
1.44911e-07
1.63225e-07
4.95686e-06
5.22635e-06
3.33204e-07
5.19824e-06
-2.2138e-07
5.22457e-06
6.16142e-08
5.21339e-06
5.67939e-08
5.2184e-06
-1.58632e-07
5.22418e-06
7.45955e-08
5.21632e-06
-5.79116e-08
5.22519e-06
-3.56868e-08
5.21934e-06
2.49427e-08
5.21492e-06
-2.55914e-08
5.21486e-06
-1.61526e-09
5.20661e-06
2.04903e-08
5.201e-06
1.37928e-08
5.19902e-06
3.51133e-08
5.19422e-06
5.83073e-08
5.18971e-06
7.54213e-08
5.18833e-06
9.5941e-08
5.18855e-06
1.21679e-07
5.18947e-06
1.43982e-07
1.60796e-07
5.1919e-06
5.47549e-06
3.12902e-07
5.44753e-06
-1.93421e-07
5.47192e-06
3.72264e-08
5.46336e-06
6.53552e-08
5.46596e-06
-1.61237e-07
5.47377e-06
6.67838e-08
5.46414e-06
-4.82807e-08
5.47174e-06
-4.3282e-08
5.46591e-06
3.07699e-08
5.45864e-06
-1.8321e-08
5.45882e-06
-1.79094e-09
5.45163e-06
2.76797e-08
5.445e-06
2.04216e-08
5.44327e-06
3.68385e-08
5.4395e-06
6.20848e-08
5.43496e-06
7.99557e-08
5.43368e-06
9.72202e-08
5.43441e-06
1.20955e-07
5.4358e-06
1.42584e-07
1.58135e-07
5.43847e-06
5.73642e-06
2.92439e-07
5.70901e-06
-1.66008e-07
5.73102e-06
1.52153e-08
5.72485e-06
7.15241e-08
5.72519e-06
-1.61579e-07
5.73448e-06
5.74975e-08
5.72311e-06
-3.691e-08
5.72898e-06
-4.91509e-08
5.72397e-06
3.57773e-08
5.71434e-06
-8.69112e-09
5.71438e-06
-1.83037e-09
5.7088e-06
3.32612e-08
5.7014e-06
2.78152e-08
5.69939e-06
3.88546e-08
5.69665e-06
6.4826e-08
5.6925e-06
8.41069e-08
5.69112e-06
9.86013e-08
5.69214e-06
1.19934e-07
5.69408e-06
1.40638e-07
1.55167e-07
5.69705e-06
6.00971e-06
2.7192e-07
5.98323e-06
-1.39523e-07
6.00268e-06
-4.23828e-09
5.99833e-06
7.58699e-08
5.99644e-06
-1.59684e-07
6.00679e-06
4.71484e-08
5.99391e-06
-2.40302e-08
5.99765e-06
-5.28877e-08
5.99427e-06
3.91487e-08
5.98296e-06
2.61944e-09
5.98231e-06
-1.17451e-09
5.97844e-06
3.7128e-08
5.97075e-06
3.55069e-08
5.96804e-06
4.1562e-08
5.96618e-06
6.66916e-08
5.9628e-06
8.74864e-08
5.96121e-06
1.00183e-07
5.96236e-06
1.18793e-07
5.96484e-06
1.38148e-07
1.51828e-07
5.96818e-06
6.29596e-06
2.51444e-07
6.27074e-06
-1.143e-07
6.28765e-06
-2.11493e-08
6.2845e-06
7.9021e-08
6.28007e-06
-1.55251e-07
6.29128e-06
3.59413e-08
6.27749e-06
-1.02412e-08
6.27854e-06
-5.39441e-08
6.27731e-06
4.03852e-08
6.26525e-06
1.46748e-08
6.26333e-06
7.48101e-10
6.261e-06
3.9461e-08
6.25351e-06
4.29895e-08
6.24994e-06
4.51316e-08
6.24867e-06
6.79665e-08
6.24632e-06
8.98342e-08
6.24461e-06
1.01896e-07
6.24572e-06
1.17681e-07
6.24867e-06
1.35198e-07
1.48067e-07
6.25243e-06
6.5958e-06
2.31113e-07
6.57213e-06
-9.06311e-08
6.58661e-06
-3.56294e-08
6.58424e-06
8.13936e-08
6.57681e-06
-1.47821e-07
6.58857e-06
2.41758e-08
6.57481e-06
3.52673e-09
6.57281e-06
-5.19505e-08
6.57359e-06
3.96081e-08
6.56176e-06
2.65006e-08
6.55821e-06
4.29874e-09
6.55702e-06
4.06529e-08
6.55019e-06
4.98228e-08
6.54581e-06
4.95084e-08
6.5448e-06
6.89736e-08
6.54355e-06
9.10851e-08
6.54192e-06
1.03525e-07
6.54292e-06
1.16682e-07
6.54619e-06
1.31933e-07
1.43872e-07
6.55038e-06
6.90987e-06
2.11032e-07
6.88792e-06
-6.8684e-08
6.90017e-06
-4.78715e-08
6.89848e-06
8.30812e-08
6.88758e-06
-1.36922e-07
6.89941e-06
1.23454e-08
6.88661e-06
1.63276e-08
6.88159e-06
-4.69329e-08
6.8838e-06
3.74044e-08
6.87297e-06
3.73228e-08
6.86774e-06
9.53731e-09
6.86717e-06
4.12226e-08
6.86131e-06
5.56825e-08
6.85634e-06
5.44731e-08
6.85533e-06
6.99815e-08
6.85504e-06
9.13823e-08
6.85378e-06
1.04781e-07
6.85467e-06
1.15792e-07
6.85808e-06
1.28522e-07
1.39287e-07
6.86267e-06
7.23886e-06
1.91307e-07
7.21868e-06
-4.85047e-08
7.2289e-06
-5.80922e-08
7.22808e-06
8.39069e-08
7.21354e-06
-1.22389e-07
7.22452e-06
1.37251e-09
7.2135e-06
2.73398e-08
7.20577e-06
-3.91972e-08
7.20866e-06
3.45139e-08
7.19938e-06
4.66021e-08
7.19263e-06
1.62823e-08
7.19217e-06
4.16911e-08
7.18745e-06
6.03997e-08
7.18221e-06
5.97143e-08
7.18103e-06
7.11583e-08
7.18141e-06
9.10016e-08
7.18079e-06
1.05405e-07
7.18166e-06
1.14915e-07
7.18508e-06
1.25102e-07
1.34413e-07
7.18996e-06
7.58348e-06
1.72052e-07
7.56505e-06
-3.00715e-08
7.57337e-06
-6.64147e-08
7.57384e-06
8.34413e-08
7.5559e-06
-1.04449e-07
7.56491e-06
-7.64054e-09
7.5561e-06
3.61479e-08
7.54618e-06
-2.92808e-08
7.54898e-06
3.1716e-08
7.54152e-06
5.4062e-08
7.53364e-06
2.4167e-08
7.53283e-06
4.24955e-08
7.52926e-06
6.39691e-08
7.52408e-06
6.49008e-08
7.52267e-06
7.25691e-08
7.52343e-06
9.02399e-08
7.52358e-06
1.0525e-07
7.52461e-06
1.13891e-07
7.52796e-06
1.21749e-07
1.29373e-07
7.533e-06
7.94447e-06
1.53397e-07
7.92766e-06
-1.3268e-08
7.93425e-06
-7.30046e-08
7.93637e-06
8.13262e-08
7.9157e-06
-8.37828e-08
7.92168e-06
-1.36145e-08
7.91507e-06
4.27557e-08
7.90361e-06
-1.78245e-08
7.90566e-06
2.96712e-08
7.9e-06
5.97146e-08
7.89147e-06
3.26983e-08
7.89001e-06
4.3959e-08
7.88745e-06
6.65238e-08
7.88263e-06
6.97234e-08
7.881e-06
7.4202e-08
7.8819e-06
8.93342e-08
7.88285e-06
1.04303e-07
7.8842e-06
1.12542e-07
7.88749e-06
1.18463e-07
1.24287e-07
7.89257e-06
8.32258e-06
1.35498e-07
8.30743e-06
1.88669e-09
8.31208e-06
-7.76555e-08
8.31622e-06
7.71797e-08
8.29374e-06
-6.13e-08
8.29595e-06
-1.58202e-08
8.29115e-06
4.7552e-08
8.27881e-06
-5.48238e-09
8.27958e-06
2.8897e-08
8.27554e-06
6.3752e-08
8.26686e-06
4.13856e-08
8.26456e-06
4.62552e-08
8.2628e-06
6.82892e-08
8.2586e-06
7.3915e-08
8.2568e-06
7.6004e-08
8.2577e-06
8.84349e-08
8.25936e-06
1.02649e-07
8.26117e-06
1.10725e-07
8.26445e-06
1.1518e-07
1.19238e-07
8.2695e-06
8.71862e-06
1.18538e-07
8.70534e-06
1.51728e-08
8.70736e-06
-7.9683e-08
8.71395e-06
7.05903e-08
8.69067e-06
-3.80158e-08
8.68871e-06
-1.3858e-08
8.68514e-06
5.11177e-08
8.67253e-06
7.12676e-09
8.6717e-06
2.9725e-08
8.66893e-06
6.65218e-08
8.66053e-06
4.97875e-08
8.65737e-06
4.94149e-08
8.65612e-06
6.9536e-08
8.65277e-06
7.72699e-08
8.65086e-06
7.79139e-08
8.6517e-06
8.75997e-08
8.65391e-06
1.00431e-07
8.65628e-06
1.08357e-07
8.65967e-06
1.11796e-07
1.14263e-07
8.66464e-06
9.13344e-06
1.02718e-07
9.12217e-06
2.64383e-08
9.12124e-06
-7.87445e-08
9.1297e-06
6.21253e-08
9.10711e-06
-1.54265e-08
9.10101e-06
-7.75433e-09
9.09788e-06
5.42499e-08
9.08553e-06
1.94767e-08
9.08301e-06
3.22356e-08
9.08104e-06
6.84969e-08
9.07327e-06
5.75555e-08
9.06933e-06
5.33517e-08
9.06835e-06
7.0519e-08
9.0659e-06
7.97179e-08
9.06402e-06
7.98015e-08
9.06478e-06
8.68342e-08
9.0674e-06
9.78125e-08
9.07034e-06
1.05418e-07
9.07394e-06
1.082e-07
1.09348e-07
9.07885e-06
9.56794e-06
8.82408e-08
9.55863e-06
3.57436e-08
9.55455e-06
-7.46594e-08
9.56416e-06
5.25081e-08
9.54354e-06
5.19744e-09
9.53376e-06
2.02767e-09
9.5303e-06
5.77127e-08
9.51852e-06
3.12513e-08
9.51448e-06
3.6272e-08
9.51284e-06
7.01456e-08
9.50588e-06
6.45096e-08
9.50136e-06
5.78737e-08
9.50044e-06
7.1435e-08
9.4988e-06
8.1357e-08
9.49716e-06
8.14475e-08
9.49787e-06
8.61232e-08
9.50074e-06
9.49442e-08
9.50421e-06
1.01942e-07
9.50812e-06
1.04297e-07
1.04436e-07
9.51303e-06
1.00231e-05
7.5293e-08
1.00158e-05
4.30337e-08
1.00085e-05
-6.7366e-08
1.00181e-05
4.29047e-08
1.00004e-05
2.29317e-08
9.98779e-06
1.46044e-08
9.98347e-06
6.20328e-08
9.97231e-06
4.24105e-08
9.96702e-06
4.15659e-08
9.96536e-06
7.18036e-08
9.95923e-06
7.06378e-08
9.95437e-06
6.27338e-08
9.95338e-06
7.24261e-08
9.95237e-06
8.23635e-08
9.95118e-06
8.26435e-08
9.95189e-06
8.54129e-08
9.95489e-06
9.19461e-08
9.95882e-06
9.8004e-08
9.96309e-06
1.00029e-07
9.94495e-08
9.96808e-06
1.04999e-05
6.40119e-08
1.04948e-05
4.81566e-08
1.04842e-05
-5.67331e-08
1.04927e-05
3.44073e-08
1.04782e-05
3.74019e-08
1.0464e-05
2.88112e-08
1.04585e-05
6.75574e-08
1.04478e-05
5.30351e-08
1.04415e-05
4.78784e-08
1.04397e-05
7.36626e-08
1.04343e-05
7.60099e-08
1.04293e-05
6.77089e-08
1.04281e-05
7.35943e-08
1.04276e-05
8.28801e-08
1.0427e-05
8.32915e-08
1.04278e-05
8.46051e-08
1.04309e-05
8.88875e-08
1.04352e-05
9.37049e-08
1.04398e-05
9.53728e-08
9.43106e-08
1.04449e-05
1.09996e-05
5.44572e-08
1.09968e-05
5.09083e-08
1.09828e-05
-4.27442e-08
1.09889e-05
2.83655e-08
1.09779e-05
4.83548e-08
1.09632e-05
4.35392e-08
1.09564e-05
7.43999e-08
1.09461e-05
6.32522e-08
1.0939e-05
5.50161e-08
1.09368e-05
7.58917e-08
1.09321e-05
8.068e-08
1.09272e-05
7.26375e-08
1.09258e-05
7.50017e-08
1.09257e-05
8.29657e-08
1.09255e-05
8.34352e-08
1.09266e-05
8.35736e-08
1.09297e-05
8.57836e-08
1.09342e-05
8.91475e-08
1.09393e-05
9.03421e-08
8.89556e-08
1.09446e-05
1.15232e-05
4.66379e-08
1.15215e-05
5.25668e-08
1.15063e-05
-2.75589e-08
1.15086e-05
2.60641e-08
1.15005e-05
5.65361e-08
1.14863e-05
5.77467e-08
1.14783e-05
8.2367e-08
1.14683e-05
7.32689e-08
1.14605e-05
6.27566e-08
1.14577e-05
7.86926e-08
1.14537e-05
8.47053e-08
1.14489e-05
7.73887e-08
1.14473e-05
7.6658e-08
1.14476e-05
8.26476e-08
1.14478e-05
8.32002e-08
1.14492e-05
8.21934e-08
1.14524e-05
8.26134e-08
1.14571e-05
8.44169e-08
1.14625e-05
8.4978e-08
8.33398e-08
1.14681e-05
1.2072e-05
4.05013e-08
1.20709e-05
5.36405e-08
1.20549e-05
-1.15603e-08
1.20537e-05
2.72836e-08
1.20473e-05
6.29318e-08
1.20341e-05
7.09109e-08
1.20254e-05
9.10718e-08
1.20154e-05
8.3272e-08
1.20072e-05
7.09567e-08
1.20037e-05
8.21625e-08
1.20002e-05
8.82762e-08
1.19957e-05
8.18182e-08
1.19939e-05
7.85193e-08
1.19945e-05
8.20133e-08
1.19951e-05
8.26409e-08
1.19969e-05
8.03977e-08
1.20001e-05
7.93389e-08
1.2005e-05
7.95672e-08
1.20106e-05
7.93361e-08
7.74382e-08
1.20165e-05
1.26471e-05
3.59533e-08
1.26462e-05
5.45769e-08
1.263e-05
4.65709e-09
1.26253e-05
3.19392e-08
1.26197e-05
6.85329e-08
1.26079e-05
8.2775e-08
1.25988e-05
1.00151e-07
1.25888e-05
9.32968e-08
1.25801e-05
7.95999e-08
1.2576e-05
8.62804e-08
1.25726e-05
9.16654e-08
1.25686e-05
8.58217e-08
1.25666e-05
8.04963e-08
1.25674e-05
8.12799e-08
1.25684e-05
8.15826e-08
1.25705e-05
7.82732e-08
1.2574e-05
7.58911e-08
1.25789e-05
7.46348e-08
1.25848e-05
7.34688e-08
7.12416e-08
1.2591e-05
1.325e-05
3.28467e-08
1.32492e-05
5.54531e-08
1.32328e-05
2.10161e-08
1.3225e-05
3.97015e-08
1.32194e-05
7.41803e-08
1.32089e-05
9.33161e-08
1.31996e-05
1.09434e-07
1.31896e-05
1.03271e-07
1.31805e-05
8.86849e-08
1.31758e-05
9.10406e-08
1.31723e-05
9.50765e-08
1.31687e-05
8.94347e-08
1.31667e-05
8.24855e-08
1.31674e-05
8.06376e-08
1.31691e-05
7.98582e-08
1.31714e-05
7.59323e-08
1.31752e-05
7.21452e-08
1.31801e-05
6.9683e-08
1.31862e-05
6.74094e-08
6.47403e-08
1.31927e-05
1.3882e-05
3.10035e-08
1.38806e-05
5.68848e-08
1.38647e-05
3.68438e-08
1.38543e-05
5.01315e-08
1.38478e-05
8.06581e-08
1.38384e-05
1.02763e-07
1.38291e-05
1.18756e-07
1.38191e-05
1.13238e-07
1.38097e-05
9.81108e-08
1.38042e-05
9.64994e-08
1.38007e-05
9.86353e-08
1.37973e-05
9.27911e-08
1.37954e-05
8.4409e-08
1.37959e-05
8.01342e-08
1.37982e-05
7.75898e-08
1.38008e-05
7.33095e-08
1.38049e-05
6.79714e-08
1.38099e-05
6.47688e-08
1.38161e-05
6.11979e-08
5.78781e-08
1.38229e-05
1.45444e-05
3.02221e-08
1.4542e-05
5.93721e-08
1.45272e-05
5.16134e-08
1.45146e-05
6.27305e-08
1.45067e-05
8.85339e-08
1.44979e-05
1.11627e-07
1.44887e-05
1.27942e-07
1.44786e-05
1.23307e-07
1.44689e-05
1.0779e-07
1.44627e-05
1.02682e-07
1.44589e-05
1.02468e-07
1.44557e-05
9.60426e-08
1.44538e-05
8.62448e-08
1.44542e-05
7.97634e-08
1.44567e-05
7.50938e-08
1.44598e-05
7.01438e-08
1.44643e-05
6.35081e-08
1.44695e-05
5.95964e-08
1.44757e-05
5.50277e-08
5.04858e-08
1.4483e-05
1.52388e-05
3.03186e-08
1.52355e-05
6.27031e-08
1.52211e-05
6.59249e-08
1.52071e-05
7.67477e-08
1.51976e-05
9.80181e-08
1.51887e-05
1.20524e-07
1.51797e-05
1.36987e-07
1.51695e-05
1.33506e-07
1.51595e-05
1.17753e-07
1.51527e-05
1.09561e-07
1.51484e-05
1.06702e-07
1.51451e-05
9.93319e-08
1.51433e-05
8.80576e-08
1.51436e-05
7.95295e-08
1.51461e-05
7.25799e-08
1.51499e-05
6.63162e-08
1.51543e-05
5.90631e-08
1.51603e-05
5.36861e-08
1.51665e-05
4.87515e-08
4.29012e-08
1.51741e-05
1.59665e-05
3.11626e-08
1.59619e-05
6.73025e-08
1.59483e-05
7.951e-08
1.59333e-05
9.17362e-08
1.59221e-05
1.09195e-07
1.59127e-05
1.29912e-07
1.59036e-05
1.46123e-07
1.58933e-05
1.43801e-07
1.5883e-05
1.28097e-07
1.58754e-05
1.17131e-07
1.58706e-05
1.11472e-07
1.58672e-05
1.02795e-07
1.58652e-05
9.00031e-08
1.58653e-05
7.94528e-08
1.58678e-05
7.01122e-08
1.5872e-05
6.21278e-08
1.58767e-05
5.4303e-08
1.5883e-05
4.74072e-08
1.58904e-05
4.13351e-08
3.60911e-08
1.58972e-05
1.67291e-05
3.26255e-08
1.67231e-05
7.33333e-08
1.67102e-05
9.24416e-08
1.66946e-05
1.07317e-07
1.66818e-05
1.21968e-07
1.66715e-05
1.40208e-07
1.6662e-05
1.55648e-07
1.66515e-05
1.54292e-07
1.66407e-05
1.38867e-07
1.66324e-05
1.2545e-07
1.6627e-05
1.16923e-07
1.66232e-05
1.06571e-07
1.66209e-05
9.22551e-08
1.66208e-05
7.96186e-08
1.66231e-05
6.7757e-08
1.66274e-05
5.78422e-08
1.66328e-05
4.89245e-08
1.66395e-05
4.07347e-08
1.66471e-05
3.37183e-08
2.81965e-08
1.6655e-05
1.75284e-05
3.46003e-08
1.75219e-05
7.98567e-08
1.75084e-05
1.05889e-07
1.74925e-05
1.23262e-07
1.74783e-05
1.36179e-07
1.74668e-05
1.51658e-07
1.74566e-05
1.65898e-07
1.74457e-05
1.6519e-07
1.74344e-05
1.50118e-07
1.74252e-05
1.34626e-07
1.74189e-05
1.23229e-07
1.74146e-05
1.10871e-07
1.74119e-05
9.49548e-08
1.74113e-05
8.02149e-08
1.74135e-05
6.56229e-08
1.74178e-05
5.35025e-08
1.74237e-05
4.29968e-08
1.74309e-05
3.36016e-08
1.7439e-05
2.56179e-08
1.92734e-08
1.74479e-05
1.83659e-05
3.70406e-08
1.83584e-05
8.73658e-08
1.83448e-05
1.19464e-07
1.83286e-05
1.39479e-07
1.83131e-05
1.51678e-07
1.83003e-05
1.64426e-07
1.82891e-05
1.77182e-07
1.82775e-05
1.76741e-07
1.82656e-05
1.62025e-07
1.82554e-05
1.44783e-07
1.8248e-05
1.3062e-07
1.8243e-05
1.15967e-07
1.82396e-05
9.82864e-08
1.82384e-05
8.1428e-08
1.82401e-05
6.38844e-08
1.82445e-05
4.91654e-08
1.82508e-05
3.66753e-08
1.82586e-05
2.58284e-08
1.82675e-05
1.6668e-08
9.4976e-09
1.82773e-05
1.92435e-05
3.99015e-08
1.92352e-05
9.56848e-08
1.92213e-05
1.33363e-07
1.92048e-05
1.5603e-07
1.91882e-05
1.68258e-07
1.91739e-05
1.78739e-07
1.91613e-05
1.89745e-07
1.91489e-05
1.8919e-07
1.9136e-05
1.74847e-07
1.91247e-05
1.56113e-07
1.9116e-05