/*--------------------------------*- C++ -*----------------------------------*\
| =========                 |                                                 |
| \\      /  F ield         | OpenFOAM: The Open Source CFD Toolbox           |
|  \\    /   O peration     | Version:  v2012                                 |
|   \\  /    A nd           | Website:  www.openfoam.com                      |
|    \\/     M anipulation  |                                                 |
\*---------------------------------------------------------------------------*/
FoamFile
{
    version     2.0;
    format      ascii;
    class       volVectorField;
    location    "1.35";
    object      U;
}
// * * * * * * * * * * * * * * * * * * * * * * * * * * * * * * * * * * * * * //

dimensions      [0 1 -1 0 0 0 0];


internalField   nonuniform List<vector> 
17600
(
(0.830851 -0.00180798 0)
(1.16928 0.000729532 0)
(0.8405 0.000184729 0)
(1.16395 0.00149917 0)
(0.853395 0.000803173 0)
(1.15131 -0.000128816 0)
(0.859986 0.00031723 0)
(1.13832 -0.00046158 0)
(0.867103 0.000876645 0)
(1.12612 -0.000241956 0)
(0.873873 0.000922984 0)
(1.11601 -0.000611269 0)
(0.878112 0.000661991 0)
(1.10841 -0.00144496 0)
(0.878139 0.000749042 0)
(1.10362 -0.00266968 0)
(0.871526 0.00150745 0)
(1.10081 -0.0038901 0)
(0.855488 0.00320097 0)
(1.09886 -0.00448077 0)
(0.842204 -0.0018943 0)
(1.15834 0.000822918 0)
(0.854645 3.92539e-05 0)
(1.15112 0.00158062 0)
(0.870909 0.000698545 0)
(1.13556 2.85612e-05 0)
(0.88029 0.00023149 0)
(1.11927 -0.000301088 0)
(0.890924 0.000802373 0)
(1.1025 -8.6761e-05 0)
(0.903175 0.00083555 0)
(1.08608 -0.000452635 0)
(0.915602 0.00055602 0)
(1.06914 -0.00129634 0)
(0.928056 0.00068065 0)
(1.04969 -0.00264481 0)
(0.94089 0.00175869 0)
(1.0238 -0.00432673 0)
(0.955392 0.00463765 0)
(0.98595 -0.00623886 0)
(0.863657 -0.00198042 0)
(1.13619 0.00089294 0)
(0.880809 -8.50778e-05 0)
(1.12615 0.00163085 0)
(0.901589 0.000657874 0)
(1.10727 0.000121492 0)
(0.914485 0.000225073 0)
(1.08737 -0.000236523 0)
(0.928452 0.000830208 0)
(1.06695 -8.51488e-05 0)
(0.94407 0.000916125 0)
(1.04765 -0.000510991 0)
(0.959164 0.000728562 0)
(1.02934 -0.00140987 0)
(0.972138 0.000958856 0)
(1.01204 -0.00270429 0)
(0.981194 0.00204631 0)
(0.995872 -0.00407215 0)
(0.984228 0.00465323 0)
(0.981951 -0.00428671 0)
(0.892026 -0.00203466 0)
(1.10588 0.000885166 0)
(0.912674 -0.000132396 0)
(1.09378 0.00158936 0)
(0.936034 0.000705493 0)
(1.07402 0.000106917 0)
(0.950041 0.000327602 0)
(1.054 -0.000289522 0)
(0.963255 0.000979985 0)
(1.03543 -0.000202198 0)
(0.976045 0.00110664 0)
(1.02064 -0.000663719 0)
(0.98613 0.000963643 0)
(1.00931 -0.00155958 0)
(0.992062 0.00122689 0)
(1.00099 -0.00276832 0)
(0.993204 0.00227266 0)
(0.994527 -0.00387926 0)
(0.989393 0.00465315 0)
(0.988322 -0.00266365 0)
(0.922445 -0.00205353 0)
(1.07322 0.000813661 0)
(0.942955 -0.000121703 0)
(1.06116 0.00147676 0)
(0.965183 0.000799601 0)
(1.04435 3.86686e-05 0)
(0.976949 0.000474023 0)
(1.02847 -0.000371625 0)
(0.985888 0.0011447 0)
(1.0159 -0.000309803 0)
(0.993063 0.00125666 0)
(1.00813 -0.000760549 0)
(0.99745 0.00109809 0)
(1.00333 -0.00161134 0)
(0.998628 0.00134632 0)
(0.999876 -0.0027407 0)
(0.996844 0.00236295 0)
(0.996035 -0.00367164 0)
(0.992136 0.00470071 0)
(0.990554 -0.00141085 0)
(0.949952 -0.00204094 0)
(1.04433 0.000713952 0)
(0.966555 -8.05496e-05 0)
(1.03452 0.00134113 0)
(0.984566 0.000894175 0)
(1.0233 -3.60792e-05 0)
(0.992415 0.000601321 0)
(1.01336 -0.000426897 0)
(0.996711 0.00125666 0)
(1.00676 -0.000367078 0)
(0.999648 0.00132899 0)
(1.00395 -0.00080071 0)
(1.00117 0.00115178 0)
(1.00235 -0.00161225 0)
(1.00087 0.00139181 0)
(1.00044 -0.00266213 0)
(0.998615 0.00237376 0)
(0.997106 -0.00336566 0)
(0.993978 0.00467523 0)
(0.991999 -0.000288922 0)
(0.971227 -0.002008 0)
(1.02306 0.000620567 0)
(0.981969 -3.22656e-05 0)
(1.01665 0.00121945 0)
(0.994758 0.000958291 0)
(1.01115 -9.38829e-05 0)
(0.999169 0.000685463 0)
(1.00621 -0.000450041 0)
(1.00052 0.00131464 0)
(1.00338 -0.000392617 0)
(1.00158 0.00135086 0)
(1.00296 -0.000822184 0)
(1.00236 0.00116977 0)
(1.00259 -0.00160254 0)
(1.00192 0.00141162 0)
(1.00119 -0.00255682 0)
(0.999703 0.00234163 0)
(0.998086 -0.00296808 0)
(0.995175 0.0045475 0)
(0.993318 0.000855366 0)
(0.985382 -0.00196827 0)
(1.00997 0.000553336 0)
(0.990559 8.31578e-06 0)
(1.00677 0.00112554 0)
(0.998962 0.000985713 0)
(1.00534 -0.000134896 0)
(1.00135 0.000732087 0)
(1.00348 -0.000456499 0)
(1.00154 0.00134029 0)
(1.00248 -0.000409217 0)
(1.00215 0.00134861 0)
(1.00301 -0.000842869 0)
(1.00297 0.00117078 0)
(1.00314 -0.00158914 0)
(1.00269 0.00141159 0)
(1.00199 -0.0024242 0)
(1.00058 0.00227275 0)
(0.999035 -0.00251074 0)
(0.996213 0.00437469 0)
(0.994512 0.00197752 0)
(0.993502 -0.00193099 0)
(1.00322 0.000513575 0)
(0.994789 3.67965e-05 0)
(1.00231 0.00105598 0)
(1.00035 0.000986838 0)
(1.00303 -0.00016787 0)
(1.00189 0.000755521 0)
(1.00275 -0.000459652 0)
(1.00193 0.00134977 0)
(1.00254 -0.000426528 0)
(1.0026 0.00133465 0)
(1.00343 -0.000864933 0)
(1.00357 0.00115942 0)
(1.00377 -0.00156858 0)
(1.00342 0.00138861 0)
(1.00278 -0.00226036 0)
(1.00142 0.0021661 0)
(0.999938 -0.00200292 0)
(0.997249 0.00418333 0)
(0.995646 0.00299157 0)
(0.997539 -0.00189885 0)
(1.00026 0.000491382 0)
(0.996782 5.5574e-05 0)
(1.00076 0.00100098 0)
(1.00082 0.00097512 0)
(1.00229 -0.000199517 0)
(1.00208 0.000766704 0)
(1.00276 -0.000465704 0)
(1.00233 0.00135047 0)
(1.00293 -0.000445913 0)
(1.00314 0.00131332 0)
(1.00394 -0.000885581 0)
(1.00417 0.00113642 0)
(1.00437 -0.00153558 0)
(1.00408 0.0013403 0)
(1.00346 -0.00206397 0)
(1.00217 0.00202801 0)
(1.00074 -0.00146019 0)
(0.998227 0.0039866 0)
(0.996709 0.00388664 0)
(0.999308 -0.00187031 0)
(0.999113 0.000475525 0)
(0.9978 6.83456e-05 0)
(1.00045 0.000951968 0)
(1.00112 0.000959697 0)
(1.00211 -0.000232292 0)
(1.00227 0.000771572 0)
(1.00297 -0.000476278 0)
(1.00278 0.00134505 0)
(1.00337 -0.000466169 0)
(1.00367 0.00128581 0)
(1.0044 -0.000900459 0)
(1.00468 0.00109979 0)
(1.00482 -0.00148255 0)
(1.00459 0.00126225 0)
(1.00397 -0.00183332 0)
(1.00275 0.00186373 0)
(1.00137 -0.000902663 0)
(0.999056 0.00381709 0)
(0.997634 0.00464994 0)
(1.00002 -0.00184285 0)
(0.998664 0.000458747 0)
(0.998401 7.76763e-05 0)
(1.00053 0.000903861 0)
(1.00138 0.000945116 0)
(1.00209 -0.000266403 0)
(1.00245 0.000772959 0)
(1.00317 -0.000490921 0)
(1.00317 0.00133397 0)
(1.00372 -0.000485365 0)
(1.00409 0.00125194 0)
(1.00472 -0.000905036 0)
(1.00502 0.00104674 0)
(1.0051 -0.00140416 0)
(1.00489 0.00115414 0)
(1.00428 -0.0015714 0)
(1.00312 0.00168162 0)
(1.0018 -0.000354473 0)
(0.999696 0.00370641 0)
(0.998378 0.00527502 0)
(1.00032 -0.00181468 0)
(0.998456 0.000438066 0)
(0.998788 8.51589e-05 0)
(1.00069 0.000854191 0)
(1.00159 0.000933068 0)
(1.00209 -0.000301412 0)
(1.00257 0.000771986 0)
(1.00329 -0.000508274 0)
(1.00344 0.00131694 0)
(1.00395 -0.000501374 0)
(1.00437 0.00120983 0)
(1.0049 -0.000894991 0)
(1.0052 0.000975013 0)
(1.00523 -0.00130071 0)
(1.00503 0.00102302 0)
(1.00443 -0.00129082 0)
(1.00333 0.00149937 0)
(1.00208 0.000190023 0)
(1.00017 0.00367313 0)
(0.998954 0.00576333 0)
(1.00045 -0.00178504 0)
(0.998343 0.000412978 0)
(0.999037 9.19903e-05 0)
(1.00082 0.000801805 0)
(1.00173 0.000923603 0)
(1.00208 -0.000336795 0)
(1.00264 0.000769018 0)
(1.00335 -0.000526926 0)
(1.00361 0.00129363 0)
(1.00408 -0.000512224 0)
(1.00452 0.00115649 0)
(1.005 -0.000867225 0)
(1.00528 0.000883726 0)
(1.00528 -0.00117498 0)
(1.00507 0.000875206 0)
(1.00448 -0.00100361 0)
(1.00344 0.00134533 0)
(1.00225 0.000691189 0)
(1.00052 0.00370956 0)
(0.999409 0.00613343 0)
(1.00052 -0.00175375 0)
(0.998286 0.000383833 0)
(0.999193 9.91835e-05 0)
(1.00092 0.000746187 0)
(1.00182 0.000915862 0)
(1.00207 -0.000372294 0)
(1.00267 0.000764103 0)
(1.00338 -0.000545244 0)
(1.00369 0.00126271 0)
(1.00415 -0.000515219 0)
(1.00459 0.00108876 0)
(1.00504 -0.000820382 0)
(1.0053 0.000773841 0)
(1.00529 -0.00103011 0)
(1.00507 0.000719408 0)
(1.0045 -0.000719783 0)
(1.0035 0.00123569 0)
(1.00238 0.00110711 0)
(1.00082 0.00380682 0)
(0.999796 0.00641858 0)
(1.00055 -0.00172087 0)
(0.998266 0.000351117 0)
(0.999287 0.000107398 0)
(1.00099 0.000687363 0)
(1.00186 0.000908869 0)
(1.00206 -0.000408053 0)
(1.00268 0.000756557 0)
(1.0034 -0.000561112 0)
(1.00374 0.00122194 0)
(1.00419 -0.000507339 0)
(1.00463 0.00100503 0)
(1.00506 -0.000755584 0)
(1.0053 0.000647701 0)
(1.00529 -0.000870557 0)
(1.00507 0.000567238 0)
(1.00451 -0.000450418 0)
(1.00357 0.00117627 0)
(1.0025 0.00146655 0)
(1.0011 0.00395741 0)
(1.00016 0.00664712 0)
(1.00056 -0.00168652 0)
(0.998272 0.000315188 0)
(0.999345 0.000117148 0)
(1.00103 0.00062506 0)
(1.00188 0.000902444 0)
(1.00205 -0.000443285 0)
(1.00268 0.000744783 0)
(1.00341 -0.000571905 0)
(1.00376 0.00116869 0)
(1.0042 -0.000486362 0)
(1.00464 0.000905172 0)
(1.00506 -0.000676411 0)
(1.0053 0.000511701 0)
(1.00528 -0.00070805 0)
(1.00507 0.000429184 0)
(1.00453 -0.000205262 0)
(1.00365 0.00117509 0)
(1.00265 0.00178453 0)
(1.00138 0.0041386 0)
(1.00051 0.00683916 0)
(1.00057 -0.00165087 0)
(0.998293 0.000276552 0)
(0.999384 0.000128349 0)
(1.00107 0.000559579 0)
(1.00189 0.000895365 0)
(1.00205 -0.000476574 0)
(1.00268 0.000726798 0)
(1.00342 -0.000575487 0)
(1.00376 0.00110219 0)
(1.00421 -0.000451793 0)
(1.00464 0.000788179 0)
(1.00506 -0.000582073 0)
(1.0053 0.000366453 0)
(1.00528 -0.00055386 0)
(1.00509 0.000310294 0)
(1.00456 3.35373e-06 0)
(1.00374 0.00122271 0)
(1.00281 0.002064 0)
(1.00167 0.00432894 0)
(1.00087 0.00700542 0)
(1.00057 -0.00161411 0)
(0.998322 0.000235864 0)
(0.999412 0.000140352 0)
(1.00109 0.000492154 0)
(1.00188 0.000885081 0)
(1.00205 -0.000506894 0)
(1.00268 0.000700692 0)
(1.00343 -0.000570395 0)
(1.00377 0.00102221 0)
(1.0042 -0.000404561 0)
(1.00464 0.000657072 0)
(1.00505 -0.000479644 0)
(1.0053 0.000218378 0)
(1.00528 -0.000417429 0)
(1.00511 0.00021942 0)
(1.00461 0.000171744 0)
(1.00385 0.00130654 0)
(1.00299 0.00231566 0)
(1.00197 0.00452023 0)
(1.00123 0.00715413 0)
(1.00057 -0.00157638 0)
(0.998357 0.000193475 0)
(0.999436 0.000153141 0)
(1.00111 0.000422844 0)
(1.00187 0.000870419 0)
(1.00204 -0.000531579 0)
(1.00268 0.000665091 0)
(1.00344 -0.000554376 0)
(1.00377 0.000926764 0)
(1.00419 -0.000345261 0)
(1.00463 0.000515903 0)
(1.00503 -0.000379434 0)
(1.0053 7.83793e-05 0)
(1.00528 -0.000308017 0)
(1.00514 0.000165445 0)
(1.00467 0.000307304 0)
(1.00397 0.00141652 0)
(1.00318 0.00255362 0)
(1.00228 0.00470893 0)
(1.0016 0.00729074 0)
(1.00056 -0.00153781 0)
(0.998395 0.000150218 0)
(0.999457 0.000165084 0)
(1.00114 0.000353481 0)
(1.00186 0.000850089 0)
(1.00204 -0.000548932 0)
(1.00268 0.000618153 0)
(1.00344 -0.000525899 0)
(1.00377 0.000815237 0)
(1.00418 -0.000275957 0)
(1.00463 0.000368878 0)
(1.00502 -0.000289525 0)
(1.0053 -4.51938e-05 0)
(1.00529 -0.000230605 0)
(1.00517 0.000145293 0)
(1.00474 0.0004195 0)
(1.0041 0.00153655 0)
(1.00339 0.00278148 0)
(1.0026 0.00489035 0)
(1.00197 0.00741649 0)
(1.00056 -0.00149866 0)
(0.998435 0.000107571 0)
(0.999478 0.000173897 0)
(1.00116 0.000286378 0)
(1.00185 0.000821563 0)
(1.00204 -0.000557006 0)
(1.00268 0.000557113 0)
(1.00345 -0.000486194 0)
(1.00377 0.000691321 0)
(1.00416 -0.000204282 0)
(1.00462 0.000225517 0)
(1.005 -0.000220852 0)
(1.0053 -0.000140404 0)
(1.0053 -0.000184654 0)
(1.0052 0.000151182 0)
(1.00482 0.000517505 0)
(1.00425 0.00165612 0)
(1.00362 0.00299943 0)
(1.00293 0.00506553 0)
(1.00234 0.00753292 0)
(1.00056 -0.00145923 0)
(0.998479 6.63616e-05 0)
(0.999498 0.000179113 0)
(1.00119 0.000222001 0)
(1.00184 0.000782579 0)
(1.00204 -0.000554883 0)
(1.00268 0.000482895 0)
(1.00345 -0.00043786 0)
(1.00378 0.000560094 0)
(1.00414 -0.000138263 0)
(1.00462 9.01916e-05 0)
(1.00498 -0.000181065 0)
(1.0053 -0.000206252 0)
(1.00532 -0.000166371 0)
(1.00524 0.000178123 0)
(1.00492 0.000609868 0)
(1.00441 0.00177255 0)
(1.00386 0.0032049 0)
(1.00327 0.00523467 0)
(1.00273 0.00763852 0)
(1.00055 -0.00141939 0)
(0.998524 2.79598e-05 0)
(0.999517 0.000177986 0)
(1.00121 0.000162475 0)
(1.00183 0.000731733 0)
(1.00204 -0.000543557 0)
(1.00268 0.000397804 0)
(1.00345 -0.000383915 0)
(1.00378 0.000428083 0)
(1.00412 -8.54263e-05 0)
(1.00461 -2.90286e-05 0)
(1.00497 -0.000167165 0)
(1.0053 -0.000250042 0)
(1.00534 -0.000168718 0)
(1.00529 0.000211622 0)
(1.00502 0.000702246 0)
(1.00459 0.00188602 0)
(1.00411 0.00339558 0)
(1.00361 0.00539528 0)
(1.00312 0.00773227 0)
(1.00054 -0.00137984 0)
(0.998571 -5.29005e-06 0)
(0.999536 0.000167915 0)
(1.00124 0.000109116 0)
(1.00182 0.000668842 0)
(1.00203 -0.000522383 0)
(1.00268 0.000302739 0)
(1.00345 -0.000329639 0)
(1.00379 0.000302417 0)
(1.0041 -5.17734e-05 0)
(1.00461 -0.000125866 0)
(1.00496 -0.000172785 0)
(1.0053 -0.000279049 0)
(1.00537 -0.000181047 0)
(1.00534 0.000238913 0)
(1.00513 0.00079759 0)
(1.00478 0.0020008 0)
(1.00438 0.00357193 0)
(1.00397 0.00554655 0)
(1.00351 0.00781632 0)
(1.00054 -0.00134066 0)
(0.998619 -3.28834e-05 0)
(0.999555 0.00014797 0)
(1.00126 6.2041e-05 0)
(1.00181 0.000594361 0)
(1.00203 -0.00049416 0)
(1.00269 0.00020445 0)
(1.00345 -0.000284148 0)
(1.00379 0.000187345 0)
(1.00408 -3.83488e-05 0)
(1.0046 -0.0002021 0)
(1.00495 -0.000197826 0)
(1.0053 -0.000298162 0)
(1.0054 -0.00019102 0)
(1.00541 0.000267727 0)
(1.00525 0.000905354 0)
(1.00499 0.00212588 0)
(1.00466 0.00373844 0)
(1.00433 0.00568795 0)
(1.00392 0.00789196 0)
(1.00053 -0.00130155 0)
(0.998667 -5.35973e-05 0)
(0.999574 0.000117242 0)
(1.00128 1.96587e-05 0)
(1.0018 0.000510722 0)
(1.00202 -0.000464268 0)
(1.00269 0.000109046 0)
(1.00345 -0.000252552 0)
(1.0038 8.37113e-05 0)
(1.00406 -4.44112e-05 0)
(1.00459 -0.000265311 0)
(1.00495 -0.000235472 0)
(1.0053 -0.000308903 0)
(1.00543 -0.000189105 0)
(1.00548 0.000321366 0)
(1.00539 0.00105029 0)
(1.0052 0.00227381 0)
(1.00496 0.00390419 0)
(1.00469 0.00581732 0)
(1.00432 0.00796056 0)
(1.00052 -0.00126318 0)
(0.998716 -6.67237e-05 0)
(0.999592 7.78757e-05 0)
(1.00131 -2.0229e-05 0)
(1.0018 0.0004206 0)
(1.00202 -0.000439331 0)
(1.0027 2.11036e-05 0)
(1.00345 -0.000237557 0)
(1.0038 -4.83806e-06 0)
(1.00404 -5.88e-05 0)
(1.00457 -0.000323657 0)
(1.00494 -0.000272458 0)
(1.0053 -0.000307782 0)
(1.00547 -0.000156513 0)
(1.00557 0.000429842 0)
(1.00553 0.00124373 0)
(1.00543 0.0024526 0)
(1.00526 0.0040702 0)
(1.00507 0.00593663 0)
(1.00474 0.00801954 0)
(1.00051 -0.00122504 0)
(0.998764 -7.34201e-05 0)
(0.999609 3.16341e-05 0)
(1.00133 -5.96863e-05 0)
(1.00179 0.000331472 0)
(1.00201 -0.000428141 0)
(1.0027 -5.44242e-05 0)
(1.00344 -0.000239929 0)
(1.0038 -7.8265e-05 0)
(1.00402 -7.65442e-05 0)
(1.00456 -0.00037026 0)
(1.00494 -0.000295435 0)
(1.0053 -0.000282689 0)
(1.00552 -4.30567e-05 0)
(1.00567 0.000592785 0)
(1.00569 0.00146118 0)
(1.00566 0.00264614 0)
(1.00557 0.00422579 0)
(1.00545 0.00603983 0)
(1.00516 0.00805854 0)
(1.0005 -0.00118784 0)
(0.998811 -7.37967e-05 0)
(0.999625 -2.06531e-05 0)
(1.00135 -9.97432e-05 0)
(1.00178 0.000247925 0)
(1.002 -0.000437458 0)
(1.00271 -0.000117269 0)
(1.00344 -0.000253994 0)
(1.0038 -0.000143546 0)
(1.004 -0.000103641 0)
(1.00454 -0.000388242 0)
(1.00494 -0.000303052 0)
(1.00532 -0.000206253 0)
(1.00558 0.000122846 0)
(1.00578 0.000773022 0)
(1.00585 0.00166782 0)
(1.0059 0.00283182 0)
(1.00588 0.0043579 0)
(1.00584 0.00611305 0)
(1.00559 0.00805817 0)
(1.0005 -0.00114976 0)
(0.998857 -7.22005e-05 0)
(0.999639 -7.13279e-05 0)
(1.00137 -0.000154946 0)
(1.00178 0.000177248 0)
(1.00199 -0.000463875 0)
(1.00271 -0.000165717 0)
(1.00343 -0.000265815 0)
(1.0038 -0.000209213 0)
(1.00398 -0.000123479 0)
(1.00452 -0.000368246 0)
(1.00495 -0.000289625 0)
(1.00535 -5.4585e-05 0)
(1.00565 0.00029609 0)
(1.0059 0.000936913 0)
(1.00602 0.00184296 0)
(1.00614 0.0030015 0)
(1.0062 0.00447061 0)
(1.00623 0.00616071 0)
(1.00601 0.00801482 0)
(1.00048 -0.00111153 0)
(0.9989 -6.86835e-05 0)
(0.999649 -0.00011766 0)
(1.00138 -0.000235188 0)
(1.00177 0.000117468 0)
(1.00198 -0.000500849 0)
(1.00271 -0.000211786 0)
(1.00342 -0.000264624 0)
(1.0038 -0.000273447 0)
(1.00397 -0.000116857 0)
(1.0045 -0.000313704 0)
(1.00496 -0.000221794 0)
(1.00539 0.000115296 0)
(1.00572 0.000478456 0)
(1.00601 0.00108999 0)
(1.0062 0.00200294 0)
(1.00638 0.00315946 0)
(1.00652 0.00458122 0)
(1.00661 0.00619487 0)
(1.00644 0.00794373 0)
(1.00047 -0.00107238 0)
(0.998942 -6.60888e-05 0)
(0.999655 -0.000151665 0)
(1.0014 -0.000336152 0)
(1.00176 6.58013e-05 0)
(1.00196 -0.000540793 0)
(1.00271 -0.000266882 0)
(1.00341 -0.000252918 0)
(1.00379 -0.000314651 0)
(1.00396 -9.57626e-05 0)
(1.00449 -0.000220145 0)
(1.00499 -0.000104688 0)
(1.00543 0.000253287 0)
(1.00578 0.000647274 0)
(1.00614 0.00124034 0)
(1.00638 0.00215183 0)
(1.00663 0.00329818 0)
(1.00684 0.00467999 0)
(1.007 0.00621017 0)
(1.00685 0.00784822 0)
(1.00046 -0.00102954 0)
(0.998981 -7.03277e-05 0)
(0.999656 -0.000157425 0)
(1.00141 -0.00045865 0)
(1.00175 2.3623e-05 0)
(1.00194 -0.000568056 0)
(1.00272 -0.000330477 0)
(1.00339 -0.000227446 0)
(1.00379 -0.000318285 0)
(1.00395 -6.24028e-05 0)
(1.00448 -8.59658e-05 0)
(1.00501 2.56902e-05 0)
(1.00548 0.000375466 0)
(1.00586 0.000797324 0)
(1.00626 0.00138365 0)
(1.00657 0.0022792 0)
(1.00689 0.00340792 0)
(1.00715 0.00475049 0)
(1.00737 0.00620002 0)
(1.00726 0.0077287 0)
(1.00045 -0.000984967 0)
(0.999021 -8.05487e-05 0)
(0.99965 -0.000131298 0)
(1.00143 -0.000591212 0)
(1.00175 -2.422e-05 0)
(1.00192 -0.000572874 0)
(1.00273 -0.000399488 0)
(1.00338 -0.000187019 0)
(1.00379 -0.000280073 0)
(1.00396 -3.07215e-06 0)
(1.00448 6.59212e-05 0)
(1.00503 0.000160785 0)
(1.00553 0.000488464 0)
(1.00593 0.000936494 0)
(1.00639 0.00152487 0)
(1.00676 0.00239129 0)
(1.00714 0.00348903 0)
(1.00747 0.00478831 0)
(1.00774 0.00616463 0)
(1.00765 0.00758976 0)
(1.00044 -0.000936958 0)
(0.999061 -0.000104006 0)
(0.999638 -8.76607e-05 0)
(1.00143 -0.000718752 0)
(1.00175 -9.43012e-05 0)
(1.0019 -0.000559028 0)
(1.00273 -0.000465062 0)
(1.00338 -0.000140935 0)
(1.00378 -0.000201801 0)
(1.00397 6.58814e-05 0)
(1.00448 0.000207653 0)
(1.00505 0.000298335 0)
(1.00558 0.000599688 0)
(1.00601 0.00106982 0)
(1.00652 0.00166087 0)
(1.00696 0.00248741 0)
(1.0074 0.00353965 0)
(1.00779 0.00479239 0)
(1.0081 0.00610613 0)
(1.00803 0.00743888 0)
(1.00042 -0.000886972 0)
(0.999103 -0.000141725 0)
(0.999621 -3.10173e-05 0)
(1.00144 -0.000823409 0)
(1.00175 -0.00018751 0)
(1.00187 -0.00053379 0)
(1.00274 -0.0005143 0)
(1.00338 -9.67301e-05 0)
(1.00378 -9.60176e-05 0)
(1.00398 0.000134436 0)
(1.00448 0.000330574 0)
(1.00506 0.000433845 0)
(1.00563 0.000713861 0)
(1.0061 0.00119943 0)
(1.00665 0.00179238 0)
(1.00715 0.00257723 0)
(1.00766 0.00357328 0)
(1.00811 0.00477286 0)
(1.00845 0.0060294 0)
(1.0084 0.00728116 0)
(1.00041 -0.000833987 0)
(0.999147 -0.000195598 0)
(0.999601 4.48811e-05 0)
(1.00143 -0.000889806 0)
(1.00176 -0.000291037 0)
(1.00185 -0.000496476 0)
(1.00276 -0.000540282 0)
(1.0034 -4.9778e-05 0)
(1.00378 2.65836e-05 0)
(1.00399 0.000214166 0)
(1.00449 0.000437323 0)
(1.00508 0.000564447 0)
(1.00569 0.000830109 0)
(1.0062 0.0013204 0)
(1.00678 0.00191615 0)
(1.00734 0.00266738 0)
(1.00792 0.00360204 0)
(1.00842 0.00473579 0)
(1.0088 0.0059315 0)
(1.00876 0.00711013 0)
(1.00039 -0.000777794 0)
(0.999194 -0.000266771 0)
(0.99958 0.000125937 0)
(1.00142 -0.000914091 0)
(1.00178 -0.00039507 0)
(1.00183 -0.000449167 0)
(1.00277 -0.000544006 0)
(1.00342 -3.83123e-06 0)
(1.00379 0.000157723 0)
(1.00401 0.000305856 0)
(1.00451 0.0005319 0)
(1.0051 0.000692353 0)
(1.00575 0.000943759 0)
(1.00629 0.00142392 0)
(1.00692 0.00202201 0)
(1.00752 0.0027557 0)
(1.00817 0.00363375 0)
(1.00874 0.00468968 0)
(1.00915 0.00581449 0)
(1.00912 0.00692269 0)
(1.00038 -0.000719491 0)
(0.999246 -0.00034952 0)
(0.999562 0.000200363 0)
(1.0014 -0.000897701 0)
(1.0018 -0.00048718 0)
(1.00182 -0.000391295 0)
(1.00279 -0.000517669 0)
(1.00346 2.99872e-05 0)
(1.0038 0.000283922 0)
(1.00402 0.000408713 0)
(1.00453 0.000619544 0)
(1.00513 0.000816736 0)
(1.0058 0.00105179 0)
(1.0064 0.00150975 0)
(1.00706 0.00210811 0)
(1.00771 0.00283815 0)
(1.00842 0.00367041 0)
(1.00904 0.00464306 0)
(1.00949 0.00568404 0)
(1.00946 0.00671866 0)
(1.00036 -0.000660174 0)
(0.999303 -0.000435419 0)
(0.999549 0.000259507 0)
(1.00137 -0.000842706 0)
(1.00182 -0.000559188 0)
(1.00181 -0.000323479 0)
(1.0028 -0.000461285 0)
(1.0035 5.62312e-05 0)
(1.00382 0.000395537 0)
(1.00404 0.000518785 0)
(1.00455 0.000709382 0)
(1.00516 0.000937071 0)
(1.00586 0.00116357 0)
(1.0065 0.00158907 0)
(1.00721 0.0021807 0)
(1.00791 0.00290769 0)
(1.00866 0.00370264 0)
(1.00933 0.00459495 0)
(1.00982 0.00554272 0)
(1.0098 0.00649747 0)
(1.00034 -0.000603913 0)
(0.999364 -0.000512968 0)
(0.999544 0.000294938 0)
(1.00133 -0.000757153 0)
(1.00185 -0.000597435 0)
(1.00182 -0.000250894 0)
(1.00282 -0.000381989 0)
(1.00355 8.25689e-05 0)
(1.00385 0.000492499 0)
(1.00405 0.000630997 0)
(1.00458 0.000804581 0)
(1.0052 0.0010504 0)
(1.00592 0.00128245 0)
(1.00661 0.00166927 0)
(1.00737 0.00224016 0)
(1.00811 0.00295598 0)
(1.0089 0.00371938 0)
(1.00961 0.00454178 0)
(1.01014 0.00539605 0)
(1.01012 0.00626481 0)
(1.00032 -0.000548503 0)
(0.999428 -0.000585071 0)
(0.999549 0.000303039 0)
(1.0013 -0.000650635 0)
(1.00189 -0.000600377 0)
(1.00183 -0.000170801 0)
(1.00284 -0.000279362 0)
(1.00361 0.000114668 0)
(1.00389 0.000577145 0)
(1.00407 0.000739988 0)
(1.00461 0.00089478 0)
(1.00524 0.00115335 0)
(1.00599 0.00140388 0)
(1.00672 0.00175522 0)
(1.00754 0.00228566 0)
(1.00832 0.00297682 0)
(1.00914 0.00371167 0)
(1.00988 0.0044765 0)
(1.01044 0.00524468 0)
(1.01044 0.00602355 0)
(1.0003 -0.000495838 0)
(0.999494 -0.000647265 0)
(0.999565 0.000286494 0)
(1.00126 -0.00053464 0)
(1.00192 -0.000571234 0)
(1.00185 -8.15305e-05 0)
(1.00286 -0.000154248 0)
(1.00367 0.000157884 0)
(1.00394 0.000653729 0)
(1.0041 0.000847741 0)
(1.00465 0.00097778 0)
(1.0053 0.00124504 0)
(1.00606 0.00152334 0)
(1.00683 0.00184973 0)
(1.0077 0.00232297 0)
(1.00853 0.00297231 0)
(1.00938 0.00367812 0)
(1.01015 0.00439666 0)
(1.01072 0.00509056 0)
(1.01074 0.00578071 0)
(1.00028 -0.000446114 0)
(0.99956 -0.000692292 0)
(0.999592 0.00025142 0)
(1.00123 -0.000415773 0)
(1.00196 -0.000511282 0)
(1.00189 1.78746e-05 0)
(1.00287 -1.14287e-05 0)
(1.00374 0.000219839 0)
(1.004 0.000723899 0)
(1.00413 0.000957431 0)
(1.00469 0.0010596 0)
(1.00536 0.00132182 0)
(1.00613 0.00163093 0)
(1.00693 0.00194777 0)
(1.00786 0.00235934 0)
(1.00874 0.0029502 0)
(1.00962 0.00362075 0)
(1.0104 0.00430118 0)
(1.01099 0.00493383 0)
(1.01101 0.00554216 0)
(1.00026 -0.000398732 0)
(0.999625 -0.000719603 0)
(0.99963 0.000203156 0)
(1.0012 -0.000299718 0)
(1.002 -0.000426522 0)
(1.00193 0.00012945 0)
(1.00289 0.000143324 0)
(1.0038 0.000305697 0)
(1.00407 0.000791516 0)
(1.00416 0.00106728 0)
(1.00473 0.00114857 0)
(1.00543 0.00138664 0)
(1.00622 0.0017195 0)
(1.00704 0.00204381 0)
(1.00801 0.00240139 0)
(1.00895 0.0029202 0)
(1.00987 0.00354129 0)
(1.01066 0.00418421 0)
(1.01125 0.00476649 0)
(1.01127 0.00530303 0)
(1.00025 -0.000356621 0)
(0.999688 -0.000725538 0)
(0.999678 0.000151988 0)
(1.00119 -0.000196934 0)
(1.00204 -0.000322483 0)
(1.00198 0.00025236 0)
(1.00291 0.000306103 0)
(1.00386 0.000411751 0)
(1.00415 0.000868317 0)
(1.00421 0.00117808 0)
(1.00477 0.00124805 0)
(1.00551 0.00144425 0)
(1.00632 0.00178284 0)
(1.00714 0.00212567 0)
(1.00815 0.00244536 0)
(1.00914 0.00288705 0)
(1.01011 0.00344333 0)
(1.01091 0.00404312 0)
(1.0115 0.00458406 0)
(1.01151 0.00506124 0)
(1.00023 -0.000317611 0)
(0.999748 -0.000713546 0)
(0.999734 0.00010759 0)
(1.00118 -0.000105722 0)
(1.00209 -0.000206044 0)
(1.00204 0.000383198 0)
(1.00293 0.000478614 0)
(1.00391 0.000530004 0)
(1.00423 0.000958101 0)
(1.00426 0.00129162 0)
(1.00481 0.00135593 0)
(1.00559 0.00150089 0)
(1.00643 0.00182449 0)
(1.00725 0.00218634 0)
(1.00828 0.00248643 0)
(1.00932 0.002855 0)
(1.01034 0.00333457 0)
(1.01116 0.00388049 0)
(1.01173 0.00438404 0)
(1.01173 0.00481396 0)
(1.00021 -0.000277078 0)
(0.999804 -0.000694256 0)
(0.999796 7.79073e-05 0)
(1.00118 -1.46221e-05 0)
(1.00214 -7.96264e-05 0)
(1.0021 0.00052121 0)
(1.00295 0.000660211 0)
(1.00397 0.000656241 0)
(1.00432 0.00105191 0)
(1.00431 0.00141057 0)
(1.00484 0.00147337 0)
(1.00566 0.00156366 0)
(1.00654 0.00185229 0)
(1.00737 0.00222288 0)
(1.0084 0.00251803 0)
(1.00949 0.00282452 0)
(1.01055 0.00322118 0)
(1.0114 0.0037004 0)
(1.01197 0.00416345 0)
(1.01194 0.0045551 0)
(1.00019 -0.000236958 0)
(0.999856 -0.000662457 0)
(0.999865 6.67274e-05 0)
(1.00119 7.77638e-05 0)
(1.0022 5.35317e-05 0)
(1.00218 0.000663086 0)
(1.00297 0.000845753 0)
(1.00401 0.000793529 0)
(1.00441 0.00114135 0)
(1.00437 0.00153519 0)
(1.00487 0.00160381 0)
(1.00572 0.00163692 0)
(1.00665 0.00187122 0)
(1.0075 0.00223304 0)
(1.00853 0.00253214 0)
(1.00963 0.00279239 0)
(1.01074 0.00310752 0)
(1.01163 0.00350941 0)
(1.0122 0.00392312 0)
(1.01214 0.00428026 0)
(1.00017 -0.000199726 0)
(0.999906 -0.000610041 0)
(0.999938 7.38209e-05 0)
(1.00121 0.000168252 0)
(1.00226 0.000187131 0)
(1.00226 0.000809733 0)
(1.00299 0.00103148 0)
(1.00404 0.000941433 0)
(1.0045 0.00122493 0)
(1.00444 0.00165691 0)
(1.00489 0.00174874 0)
(1.00576 0.00172626 0)
(1.00676 0.00188872 0)
(1.00763 0.00222055 0)
(1.00865 0.00252365 0)
(1.00976 0.00275366 0)
(1.01091 0.00299521 0)
(1.01183 0.00331353 0)
(1.01241 0.00366617 0)
(1.01234 0.00398616 0)
(1.00015 -0.000160265 0)
(0.999951 -0.0005441 0)
(1.00001 0.00010154 0)
(1.00123 0.000261508 0)
(1.00233 0.000314845 0)
(1.00234 0.000959107 0)
(1.003 0.00121982 0)
(1.00406 0.0010983 0)
(1.00459 0.00130739 0)
(1.00452 0.00176258 0)
(1.00491 0.0019018 0)
(1.00579 0.00183542 0)
(1.00685 0.00191049 0)
(1.00776 0.00218964 0)
(1.00877 0.00248449 0)
(1.00987 0.00269678 0)
(1.01104 0.0028782 0)
(1.012 0.00311346 0)
(1.0126 0.00339499 0)
(1.01252 0.00367058 0)
(1.00013 -0.000119642 0)
(0.999993 -0.000465927 0)
(1.00009 0.000154829 0)
(1.00126 0.000362181 0)
(1.0024 0.000437166 0)
(1.00243 0.00110361 0)
(1.00301 0.00141633 0)
(1.00407 0.00126683 0)
(1.00467 0.00139639 0)
(1.00461 0.00184869 0)
(1.00492 0.00205303 0)
(1.00578 0.00196791 0)
(1.00691 0.00194816 0)
(1.00788 0.00215175 0)
(1.00888 0.00241715 0)
(1.00996 0.00261664 0)
(1.01114 0.0027527 0)
(1.01214 0.00291147 0)
(1.01277 0.00311568 0)
(1.01268 0.00333689 0)
(1.00012 -7.51715e-05 0)
(1.00003 -0.000381214 0)
(1.00016 0.000233855 0)
(1.00129 0.000477701 0)
(1.00247 0.000556609 0)
(1.00253 0.00123187 0)
(1.00302 0.00161884 0)
(1.00405 0.00145168 0)
(1.00474 0.00149493 0)
(1.0047 0.00191787 0)
(1.00494 0.00218905 0)
(1.00576 0.00211671 0)
(1.00693 0.00201145 0)
(1.00797 0.00211674 0)
(1.00899 0.00233093 0)
(1.01005 0.00251101 0)
(1.01122 0.0026134 0)
(1.01223 0.00270566 0)
(1.01289 0.00283198 0)
(1.01281 0.00298916 0)
(1.0001 -2.70538e-05 0)
(1.00007 -0.000288734 0)
(1.00023 0.000333976 0)
(1.00131 0.000611323 0)
(1.00254 0.000677641 0)
(1.00263 0.00134178 0)
(1.00303 0.00182327 0)
(1.00401 0.00166663 0)
(1.00478 0.00161277 0)
(1.00479 0.00197957 0)
(1.00497 0.0023002 0)
(1.00571 0.00226702 0)
(1.00691 0.00209996 0)
(1.00802 0.00209324 0)
(1.00907 0.00223425 0)
(1.01011 0.00237784 0)
(1.01126 0.00244976 0)
(1.01228 0.00248619 0)
(1.01296 0.00253775 0)
(1.0129 0.00262555 0)
(1.00009 2.07227e-05 0)
(1.0001 -0.00018473 0)
(1.00031 0.000443118 0)
(1.00133 0.000770222 0)
(1.00259 0.00080934 0)
(1.00274 0.00144549 0)
(1.00305 0.00201326 0)
(1.00395 0.00191507 0)
(1.0048 0.00176071 0)
(1.00488 0.00204515 0)
(1.00501 0.00238473 0)
(1.00566 0.00240665 0)
(1.00684 0.00220634 0)
(1.00801 0.00209384 0)
(1.00911 0.00213833 0)
(1.01015 0.00222691 0)
(1.01127 0.00226077 0)
(1.01228 0.00224925 0)
(1.01298 0.00223157 0)
(1.01294 0.00224957 0)
(1.00008 7.21316e-05 0)
(1.00013 -7.38433e-05 0)
(1.00038 0.000560395 0)
(1.00134 0.000948855 0)
(1.00264 0.000967471 0)
(1.00285 0.0015469 0)
(1.00308 0.00218283 0)
(1.00388 0.0021756 0)
(1.00477 0.00195543 0)
(1.00494 0.00212714 0)
(1.00504 0.00245675 0)
(1.00559 0.00252594 0)
(1.00674 0.00231982 0)
(1.00795 0.00211597 0)
(1.0091 0.00205081 0)
(1.01015 0.00206431 0)
(1.01124 0.00204998 0)
(1.01224 0.00199057 0)
(1.01294 0.00191456 0)
(1.01292 0.00186458 0)
(1.00006 0.000123874 0)
(1.00016 4.85397e-05 0)
(1.00045 0.000684092 0)
(1.00135 0.00113945 0)
(1.00266 0.00115534 0)
(1.00296 0.00165612 0)
(1.00313 0.00233863 0)
(1.0038 0.00243251 0)
(1.0047 0.00219855 0)
(1.00497 0.00224762 0)
(1.00507 0.0025316 0)
(1.00552 0.00262909 0)
(1.00659 0.00243243 0)
(1.00782 0.00215568 0)
(1.00903 0.00197869 0)
(1.01009 0.00189808 0)
(1.01117 0.00182225 0)
(1.01214 0.00171109 0)
(1.01284 0.00158169 0)
(1.01283 0.00146871 0)
(1.00005 0.000172711 0)
(1.00018 0.000183194 0)
(1.00052 0.00080743 0)
(1.00136 0.00134199 0)
(1.00267 0.00137391 0)
(1.00305 0.00178991 0)
(1.00318 0.00248562 0)
(1.00372 0.00268337 0)
(1.0046 0.00247033 0)
(1.00496 0.00241725 0)
(1.00509 0.00261993 0)
(1.00544 0.00272316 0)
(1.00642 0.00253877 0)
(1.00763 0.00220865 0)
(1.00887 0.00192431 0)
(1.00997 0.00173733 0)
(1.01104 0.00158252 0)
(1.01199 0.00141343 0)
(1.01267 0.00122728 0)
(1.01268 0.00105493 0)
(1.00005 0.000221214 0)
(1.0002 0.000324368 0)
(1.0006 0.00093948 0)
(1.00136 0.00154402 0)
(1.00265 0.00162528 0)
(1.00313 0.00195616 0)
(1.00324 0.00263586 0)
(1.00365 0.00292911 0)
(1.00447 0.00276313 0)
(1.00489 0.00263409 0)
(1.00506 0.0027379 0)
(1.00535 0.00281764 0)
(1.00621 0.00264005 0)
(1.00737 0.00227082 0)
(1.00864 0.00188788 0)
(1.00976 0.00158604 0)
(1.01083 0.00133568 0)
(1.01176 0.00109299 0)
(1.01244 0.000844349 0)
(1.01245 0.000608717 0)
(1.00004 0.000268347 0)
(1.00022 0.00047568 0)
(1.00066 0.00107703 0)
(1.00137 0.00174318 0)
(1.00262 0.00189474 0)
(1.00318 0.00216222 0)
(1.0033 0.00279657 0)
(1.00358 0.00317342 0)
(1.00432 0.00307394 0)
(1.00478 0.00289756 0)
(1.00499 0.00290299 0)
(1.00522 0.00292925 0)
(1.00597 0.00274806 0)
(1.00705 0.00234207 0)
(1.0083 0.00187319 0)
(1.00945 0.00144666 0)
(1.01054 0.00108487 0)
(1.01145 0.000747485 0)
(1.01212 0.000421197 0)
(1.01214 0.000114748 0)
(1.00004 0.000311586 0)
(1.00022 0.000639608 0)
(1.00072 0.0012285 0)
(1.00139 0.00193629 0)