/*--------------------------------*- C++ -*----------------------------------*\
| =========                 |                                                 |
| \\      /  F ield         | OpenFOAM: The Open Source CFD Toolbox           |
|  \\    /   O peration     | Version:  v2012                                 |
|   \\  /    A nd           | Website:  www.openfoam.com                      |
|    \\/     M anipulation  |                                                 |
\*---------------------------------------------------------------------------*/
FoamFile
{
    version     2.0;
    format      ascii;
    class       surfaceScalarField;
    location    "0.95";
    object      phi;
}
// * * * * * * * * * * * * * * * * * * * * * * * * * * * * * * * * * * * * * //

dimensions      [0 3 -1 0 0 0 0];
oriented        oriented;


internalField   nonuniform List<scalar> 
34900
(
1.18197e-06
1.40418e-07
1.16911e-06
2.98854e-07
1.16656e-06
-5.76053e-08
1.15314e-06
-8.21538e-08
1.1564e-06
-1.25419e-08
1.14948e-06
-5.98496e-08
1.15425e-06
2.38698e-08
1.14867e-06
-4.29502e-08
1.15551e-06
1.24244e-07
1.14592e-06
-8.32379e-08
1.15466e-06
2.10106e-07
1.13917e-06
-1.18714e-07
1.14995e-06
1.856e-07
1.13196e-06
-5.35058e-08
1.1422e-06
9.6565e-08
1.12555e-06
2.51728e-08
1.13472e-06
6.0312e-08
1.11824e-06
2.60757e-08
1.12181e-06
8.42299e-08
2.89937e-08
1.08389e-06
1.23536e-06
1.29316e-07
1.22691e-06
3.07305e-07
1.22244e-06
-5.3131e-08
1.20948e-06
-6.91915e-08
1.21094e-06
-1.40096e-08
1.20582e-06
-5.47262e-08
1.20792e-06
2.17712e-08
1.20527e-06
-4.03023e-08
1.20835e-06
1.21169e-07
1.20278e-06
-7.76681e-08
1.20547e-06
2.07417e-07
1.19656e-06
-1.09808e-07
1.19807e-06
1.84086e-07
1.19206e-06
-4.74946e-08
1.18842e-06
1.00206e-07
1.19044e-06
2.31554e-08
1.17914e-06
7.16118e-08
1.18789e-06
1.73256e-08
1.16242e-06
1.097e-07
2.39345e-08
1.16748e-06
1.28939e-06
1.22714e-07
1.28796e-06
3.08736e-07
1.28006e-06
-4.52349e-08
1.27044e-06
-5.9577e-08
1.26725e-06
-1.08192e-08
1.26627e-06
-5.37389e-08
1.2636e-06
2.44352e-08
1.26571e-06
-4.24071e-08
1.26354e-06
1.23341e-07
1.26352e-06
-7.76504e-08
1.26061e-06
2.10326e-07
1.25841e-06
-1.07613e-07
1.2538e-06
1.88698e-07
1.25524e-06
-4.89368e-08
1.24645e-06
1.09002e-07
1.2526e-06
1.70013e-08
1.24139e-06
8.28188e-08
1.24567e-06
1.30474e-08
1.23323e-06
1.22148e-07
3.68389e-08
1.22032e-06
1.3446e-06
1.22221e-07
1.35132e-06
3.02008e-07
1.34042e-06
-3.43263e-08
1.33455e-06
-5.37119e-08
1.32662e-06
-2.89144e-09
1.32927e-06
-5.63885e-08
1.32275e-06
3.09545e-08
1.32786e-06
-4.75162e-08
1.32312e-06
1.28079e-07
1.32578e-06
-8.03029e-08
1.32218e-06
2.1392e-07
1.32213e-06
-1.07563e-07
1.31836e-06
1.92475e-07
1.31974e-06
-5.03195e-08
1.31419e-06
1.14551e-07
1.3164e-06
1.47879e-08
1.31121e-06
8.8011e-08
1.30894e-06
1.53206e-08
1.30419e-06
1.26897e-07
5.40815e-08
1.28695e-06
1.40261e-06
1.27961e-07
1.41618e-06
2.88439e-07
1.40433e-06
-2.2469e-08
1.40097e-06
-5.03597e-08
1.39038e-06
7.70007e-09
1.39429e-06
-6.03008e-08
1.38678e-06
3.84651e-08
1.39177e-06
-5.25053e-08
1.38795e-06
1.31905e-07
1.39009e-06
-8.24437e-08
1.38914e-06
2.14868e-07
1.38835e-06
-1.06777e-07
1.38779e-06
1.93041e-07
1.38714e-06
-4.96675e-08
1.38511e-06
1.1658e-07
1.38442e-06
1.54746e-08
1.38207e-06
9.03614e-08
1.37733e-06
2.00558e-08
1.37469e-06
1.29539e-07
7.13526e-08
1.35742e-06
1.46528e-06
1.38358e-07
1.48255e-06
2.71167e-07
1.47242e-06
-1.23411e-08
1.46988e-06
-4.78215e-08
1.4594e-06
1.81883e-08
1.46234e-06
-6.32442e-08
1.45617e-06
4.46303e-08
1.45922e-06
-5.55484e-08
1.45767e-06
1.33448e-07
1.45826e-06
-8.30265e-08
1.45999e-06
2.13136e-07
1.45821e-06
-1.04997e-07
1.45993e-06
1.91317e-07
1.45798e-06
-4.77191e-08
1.45785e-06
1.16716e-07
1.45584e-06
1.74793e-08
1.45477e-06
9.14297e-08
1.44867e-06
2.61577e-08
1.44749e-06
1.30719e-07
8.85944e-08
1.43025e-06
1.53387e-06
1.50701e-07
1.55145e-06
2.53588e-07
1.5448e-06
-5.68726e-09
1.54211e-06
-4.51292e-08
1.53352e-06
2.67753e-08
1.53468e-06
-6.44025e-08
1.53045e-06
4.88605e-08
1.53155e-06
-5.66469e-08
1.53176e-06
1.33232e-07
1.53119e-06
-8.24516e-08
1.53444e-06
2.09881e-07
1.53211e-06
-1.02661e-07
1.53512e-06
1.88305e-07
1.53245e-06
-4.50521e-08
1.53354e-06
1.15632e-07
1.53062e-06
2.03954e-08
1.5307e-06
9.13474e-08
1.52328e-06
3.35779e-08
1.52346e-06
1.30539e-07
1.0549e-07
1.50657e-06
1.60854e-06
1.6229e-07
1.62411e-06
2.38014e-07
1.62099e-06
-2.56346e-09
1.6182e-06
-4.23381e-08
1.6119e-06
3.30701e-08
1.61168e-06
-6.41751e-08
1.60884e-06
5.16919e-08
1.60883e-06
-5.66277e-08
1.60989e-06
1.32165e-07
1.60875e-06
-8.13107e-08
1.61272e-06
2.05912e-07
1.61001e-06
-9.99544e-08
1.61395e-06
1.84368e-07
1.61065e-06
-4.1748e-08
1.61287e-06
1.13411e-07
1.60902e-06
2.424e-08
1.6103e-06
9.00752e-08
1.60167e-06
4.22065e-08
1.60286e-06
1.29347e-07
1.21461e-07
1.58689e-06
1.68847e-06
1.71399e-07
1.70121e-06
2.25274e-07
1.70043e-06
-1.78901e-09
1.69809e-06
-4.00012e-08
1.69368e-06
3.74855e-08
1.69285e-06
-6.33409e-08
1.69077e-06
5.37717e-08
1.69037e-06
-5.62326e-08
1.69177e-06
1.30764e-07
1.69039e-06
-7.99278e-08
1.69477e-06
2.01535e-07
1.69164e-06
-9.6828e-08
1.69647e-06
1.79538e-07
1.69241e-06
-3.76883e-08
1.69582e-06
1.09999e-07
1.69099e-06
2.90754e-08
1.69339e-06
8.76693e-08
1.6838e-06
5.17945e-08
1.68556e-06
1.27595e-07
1.35937e-07
1.67108e-06
1.77263e-06
1.77495e-07
1.78278e-06
2.15123e-07
1.78292e-06
-1.93024e-09
1.78145e-06
-3.85339e-08
1.77837e-06
4.05696e-08
1.77751e-06
-6.24851e-08
1.77585e-06
5.54336e-08
1.77547e-06
-5.58519e-08
1.77707e-06
1.29164e-07
1.77554e-06
-7.84008e-08
1.78029e-06
1.96785e-07
1.77662e-06
-9.31602e-08
1.7824e-06
1.7376e-07
1.77744e-06
-3.27297e-08
1.78209e-06
1.05356e-07
1.77625e-06
3.49134e-08
1.77961e-06
8.43071e-08
1.76943e-06
6.19708e-08
1.77122e-06
1.25807e-07
1.48414e-07
1.75875e-06
1.86038e-06
1.80868e-07
1.8686e-06
2.06894e-07
1.86866e-06
-1.99103e-09
1.8681e-06
-3.79731e-08
1.86594e-06
4.27368e-08
1.86533e-06
-6.18743e-08
1.864e-06
5.67584e-08
1.86375e-06
-5.56034e-08
1.86559e-06
1.27326e-07
1.8639e-06
-7.67069e-08
1.86909e-06
1.91589e-07
1.86477e-06
-8.88317e-08
1.87155e-06
1.66973e-07
1.8656e-06
-2.67787e-08
1.87144e-06
9.95197e-08
1.86468e-06
4.16697e-08
1.86869e-06
8.02994e-08
1.85839e-06
7.22654e-08
1.85966e-06
1.2454e-07
1.5852e-07
1.84955e-06
1.95158e-06
1.82126e-07
1.95853e-06
1.99946e-07
1.9581e-06
-1.56068e-09
1.95822e-06
-3.80944e-08
1.95669e-06
4.42646e-08
1.95636e-06
-6.15453e-08
1.95539e-06
5.77323e-08
1.95524e-06
-5.54545e-08
1.95741e-06
1.25156e-07
1.95547e-06
-7.47643e-08
1.96122e-06
1.85836e-07
1.95614e-06
-8.37466e-08
1.96396e-06
1.59149e-07
1.957e-06
-1.98172e-08
1.96389e-06
9.26255e-08
1.95642e-06
4.91387e-08
1.96065e-06
7.60719e-08
1.95075e-06
8.21709e-08
1.951e-06
1.24285e-07
1.66105e-07
1.94342e-06
2.04646e-06
1.8186e-07
2.05257e-06
1.93828e-07
2.05165e-06
-6.38813e-10
2.05217e-06
-3.86104e-08
2.0511e-06
4.53356e-08
2.05097e-06
-6.14157e-08
2.05037e-06
5.8331e-08
2.05021e-06
-5.52988e-08
2.05281e-06
1.2256e-07
2.05051e-06
-7.24637e-08
2.05693e-06
1.7941e-07
2.05102e-06
-7.78374e-08
2.05988e-06
1.50289e-07
2.05198e-06
-1.19087e-08
2.0597e-06
8.49051e-08
2.05184e-06
5.69969e-08
2.05578e-06
7.21291e-08
2.04675e-06
9.12007e-08
2.04567e-06
1.25364e-07
1.71286e-07
2.04049e-06
2.14534e-06
1.80518e-07
2.15089e-06
1.88283e-07
2.14966e-06
5.87243e-10
2.15033e-06
-3.92802e-08
2.14961e-06
4.60548e-08
2.14955e-06
-6.13571e-08
2.14935e-06
5.85311e-08
2.14905e-06
-5.49986e-08
2.15217e-06
1.19444e-07
2.1494e-06
-6.9689e-08
2.1566e-06
1.72206e-07
2.14983e-06
-7.10695e-08
2.15968e-06
1.40441e-07
2.15098e-06
-3.20382e-09
2.1592e-06
7.66781e-08
2.15137e-06
6.48304e-08
2.15451e-06
6.89909e-08
2.14675e-06
9.89542e-08
2.14424e-06
1.27881e-07
1.74421e-07
2.1411e-06
2.24861e-06
1.78401e-07
2.2537e-06
1.8319e-07
2.2524e-06
1.88588e-09
2.25305e-06
-3.9926e-08
2.25264e-06
4.64562e-08
2.25252e-06
-6.12312e-08
2.25275e-06
5.82961e-08
2.25216e-06
-5.44078e-08
2.25589e-06
1.15714e-07
2.25254e-06
-6.63326e-08
2.2606e-06
1.64143e-07
2.25298e-06
-6.34543e-08
2.26371e-06
1.2971e-07
2.25446e-06
6.05163e-09
2.2628e-06
6.83311e-08
2.25544e-06
7.21992e-08
2.25732e-06
6.71086e-08
2.2511e-06
1.0517e-07
2.24726e-06
1.31722e-07
1.76037e-07
2.24565e-06
2.35659e-06
1.75688e-07
2.36125e-06
1.78526e-07
2.3601e-06
3.04076e-09
2.36058e-06
-4.04093e-08
2.36052e-06
4.65138e-08
2.36019e-06
-6.0902e-08
2.36093e-06
5.75658e-08
2.3599e-06
-5.33856e-08
2.36434e-06
1.11281e-07
2.36031e-06
-6.23089e-08
2.36927e-06
1.55182e-07
2.36088e-06
-5.50642e-08
2.37231e-06
1.18282e-07
2.36285e-06
1.55168e-08
2.37088e-06
6.02965e-08
2.36439e-06
7.86909e-08
2.3647e-06
6.67965e-08
2.36009e-06
1.09781e-07
2.35523e-06
1.3658e-07
1.76731e-07
2.35454e-06
2.46961e-06
1.72472e-07
2.47381e-06
1.74323e-07
2.47299e-06
3.86183e-09
2.47319e-06
-4.06056e-08
2.47355e-06
4.61559e-08
2.47288e-06
-6.02377e-08
2.47419e-06
5.62571e-08
2.47261e-06
-5.18052e-08
2.47783e-06
1.06062e-07
2.47309e-06
-5.75695e-08
2.48293e-06
1.4534e-07
2.47392e-06
-4.60497e-08
2.48577e-06
1.06425e-07
2.47651e-06
2.47801e-08
2.48379e-06
5.30179e-08
2.47852e-06
8.39629e-08
2.47712e-06
6.81912e-08
2.47397e-06
1.12937e-07
2.46856e-06
1.41983e-07
1.77091e-07
2.4682e-06
2.58797e-06
1.68792e-07
2.59164e-06
1.70653e-07
2.59133e-06
4.1786e-09
2.59111e-06
-4.03916e-08
2.59199e-06
4.52803e-08
2.59086e-06
-5.91112e-08
2.59284e-06
5.42752e-08
2.5906e-06
-4.95637e-08
2.59666e-06
1.00003e-07
2.59121e-06
-5.2121e-08
2.60184e-06
1.3471e-07
2.59245e-06
-3.66517e-08
2.60438e-06
9.44882e-08
2.59577e-06
3.33951e-08
2.60188e-06
4.69014e-08
2.59807e-06
8.77805e-08
2.59503e-06
7.12274e-08
2.59298e-06
1.1499e-07
2.58757e-06
1.47391e-07
1.77613e-07
2.58705e-06
2.71197e-06
1.64651e-07
2.71501e-06
1.67608e-07
2.71536e-06
3.83064e-09
2.71461e-06
-3.96402e-08
2.71612e-06
4.37678e-08
2.71442e-06
-5.74044e-08
2.71716e-06
5.15306e-08
2.71419e-06
-4.65946e-08
2.7211e-06
9.30934e-08
2.71503e-06
-4.60459e-08
2.72626e-06
1.23477e-07
2.71681e-06
-2.7198e-08
2.72844e-06
8.28566e-08
2.72088e-06
4.0955e-08
2.72554e-06
4.22406e-08
2.72325e-06
9.00725e-08
2.71884e-06
7.56382e-08
2.71742e-06
1.16409e-07
2.71249e-06
1.52322e-07
1.78617e-07
2.71148e-06
2.84189e-06
1.60032e-07
2.8442e-06
1.65296e-07
2.84537e-06
2.6621e-09
2.84395e-06
-3.82241e-08
2.84622e-06
4.14976e-08
2.84384e-06
-5.50189e-08
2.84741e-06
4.79588e-08
2.8437e-06
-4.28837e-08
2.8514e-06
8.53936e-08
2.84487e-06
-3.95215e-08
2.85643e-06
1.1192e-07
2.84732e-06
-1.80872e-08
2.85825e-06
7.19249e-08
2.85208e-06
4.71305e-08
2.85514e-06
3.91769e-08
2.85427e-06
9.09457e-08
2.8489e-06
8.10096e-08
2.84764e-06
1.17666e-07
2.84349e-06
1.56474e-07
1.802e-07
2.8419e-06
2.97802e-06
1.5491e-07
2.97948e-06
1.63829e-07
2.98162e-06
5.21773e-10
2.97943e-06
-3.60244e-08
2.98256e-06
3.83636e-08
2.97943e-06
-5.18911e-08
2.98385e-06
4.35434e-08
2.97945e-06
-3.84909e-08
2.98779e-06
7.70532e-08
2.9811e-06
-3.28264e-08
2.99263e-06
1.00389e-07
2.98428e-06
-9.73543e-09
2.99417e-06
6.20324e-08
2.98957e-06
5.17359e-08
2.99108e-06
3.76582e-08
2.99137e-06
9.06628e-08
2.98552e-06
8.68604e-08
2.98404e-06
1.19144e-07
2.98073e-06
1.59779e-07
1.82264e-07
2.97867e-06
3.12066e-06
1.4926e-07
3.12117e-06
1.6332e-07
3.12442e-06
-2.73329e-09
3.12134e-06
-3.29409e-08
3.12541e-06
3.42936e-08
3.12153e-06
-4.80113e-08
3.12673e-06
3.83383e-08
3.12181e-06
-3.35689e-08
3.13054e-06
6.8322e-08
3.12405e-06
-2.63322e-08
3.13516e-06
8.92765e-08
3.12795e-06
-2.52422e-09
3.13658e-06
5.34012e-08
3.13355e-06
5.4763e-08
3.13375e-06
3.74599e-08
3.13483e-06
8.95807e-08
3.12897e-06
9.27211e-08
3.12702e-06
1.21097e-07
3.12442e-06
1.62378e-07
1.84609e-07
3.12207e-06
3.27011e-06
1.43056e-07
3.26956e-06
1.63876e-07
3.27405e-06
-7.22862e-09
3.27002e-06
-2.8907e-08
3.27505e-06
2.92671e-08
3.27048e-06
-4.34436e-08
3.27633e-06
3.24897e-08
3.27113e-06
-2.83759e-08
3.27991e-06
5.95407e-08
3.27404e-06
-2.04578e-08
3.28437e-06
7.89445e-08
3.27855e-06
3.30043e-09
3.28588e-06
4.6065e-08
3.28427e-06
5.63737e-08
3.28347e-06
3.82611e-08
3.28496e-06
8.80899e-08
3.27945e-06
9.82348e-08
3.27692e-06
1.23623e-07
3.27477e-06
1.64534e-07
1.87043e-07
3.27233e-06
3.42671e-06
1.36281e-07
3.42499e-06
1.65591e-07
3.43082e-06
-1.306e-08
3.42582e-06
-2.39063e-08
3.43175e-06
2.33364e-08
3.42666e-06
-3.8347e-08
3.4329e-06
2.62513e-08
3.42779e-06
-2.32731e-08
3.43622e-06
5.111e-08
3.43137e-06
-1.56042e-08
3.44067e-06
6.96411e-08
3.43626e-06
7.71074e-09
3.44248e-06
3.98428e-08
3.44199e-06
5.6871e-08
3.44049e-06
3.97614e-08
3.44196e-06
8.66218e-08
3.43694e-06
1.03248e-07
3.43391e-06
1.26657e-07
3.43197e-06
1.66467e-07
1.89442e-07
3.42957e-06
3.59077e-06
1.28924e-07
3.58782e-06
1.68536e-07
3.59504e-06
-2.0277e-08
3.58913e-06
-1.79921e-08
3.59582e-06
1.66462e-08
3.59046e-06
-3.29904e-08
3.59672e-06
1.99873e-08
3.59215e-06
-1.87011e-08
3.59982e-06
4.34378e-08
3.59628e-06
-1.20628e-08
3.6045e-06
6.14239e-08
3.60131e-06
1.08977e-08
3.60671e-06
3.44452e-08
3.60695e-06
5.66326e-08
3.60483e-06
4.18748e-08
3.60577e-06
8.56886e-08
3.6012e-06
1.07813e-07
3.59781e-06
1.30048e-07
3.5961e-06
1.68181e-07
1.91682e-07
3.59386e-06
3.76264e-06
1.2099e-07
3.75843e-06
1.72749e-07
3.76701e-06
-2.88617e-08
3.76033e-06
-1.13127e-08
3.76752e-06
9.45946e-09
3.7623e-06
-2.77673e-08
3.76812e-06
1.41588e-08
3.76455e-06
-1.51223e-08
3.77113e-06
3.68537e-08
3.76898e-06
-9.90862e-09
3.77629e-06
5.41066e-08
3.77396e-06
1.3231e-08
3.77876e-06
2.96491e-08
3.77923e-06
5.61601e-08
3.77618e-06
4.49196e-08
3.77618e-06
8.56904e-08
3.77192e-06
1.12072e-07
3.76832e-06
1.33649e-07
3.76705e-06
1.6945e-07
1.93472e-07
3.76526e-06
3.94268e-06
1.12494e-07
3.93721e-06
1.78221e-07
3.94705e-06
-3.87054e-08
3.93987e-06
-4.12871e-09
3.94717e-06
2.16164e-09
3.94258e-06
-2.31752e-08
3.94747e-06
9.26966e-09
3.94528e-06
-1.29359e-08
3.95063e-06
3.15058e-08
3.94966e-06
-8.93921e-09
3.95642e-06
4.73414e-08
3.95451e-06
1.51404e-08
3.95857e-06
2.55936e-08
3.95866e-06
5.60657e-08
3.9542e-06
4.93812e-08
3.95317e-06
8.67232e-08
3.94919e-06
1.16049e-07
3.94555e-06
1.37289e-07
3.94491e-06
1.70091e-07
1.94365e-07
3.94402e-06
4.13127e-06
1.03474e-07
4.12461e-06
1.84882e-07
4.13548e-06
-4.95749e-08
4.12819e-06
3.15583e-09
4.13508e-06
-4.72248e-09
4.1317e-06
-1.9792e-08
4.13517e-06
5.7919e-09
4.13461e-06
-1.23757e-08
4.13882e-06
2.72984e-08
4.1386e-06
-8.71493e-09
4.14512e-06
4.08138e-08
4.14316e-06
1.71021e-08
4.14588e-06
2.28807e-08
4.14516e-06
5.67842e-08
4.13932e-06
5.5215e-08
4.13732e-06
8.87309e-08
4.13374e-06
1.19619e-07
4.13029e-06
1.40746e-07
4.13026e-06
1.70115e-07
1.94078e-07
4.13055e-06
4.32879e-06
9.39866e-08
4.32109e-06
1.92584e-07
4.33261e-06
-6.10932e-08
4.32575e-06
1.00092e-08
4.33162e-06
-1.05929e-08
4.33e-06
-1.81724e-08
4.33176e-06
4.03524e-09
4.33276e-06
-1.33782e-08
4.33621e-06
2.38557e-08
4.33612e-06
-8.62742e-09
4.34247e-06
3.44649e-08
4.34002e-06
1.95475e-08
4.34052e-06
2.23835e-08
4.33913e-06
5.8173e-08
4.33248e-06
6.18636e-08
4.32969e-06
9.15218e-08
4.32662e-06
1.22685e-07
4.32359e-06
1.43785e-07
4.32409e-06
1.69605e-07
1.92723e-07
4.32545e-06
4.53564e-06
8.41171e-08
4.52714e-06
2.01087e-07
4.53876e-06
-7.27128e-08
4.53299e-06
1.57781e-08
4.53723e-06
-1.48367e-08
4.53781e-06
-1.8748e-08
4.53782e-06
4.02205e-09
4.53994e-06
-1.5492e-08
4.5432e-06
2.05966e-08
4.54257e-06
-8.00254e-09
4.54843e-06
2.8605e-08
4.54527e-06
2.27111e-08
4.54327e-06
2.43779e-08
4.54138e-06
6.00655e-08
4.53464e-06
6.86047e-08
4.53135e-06
9.48132e-08
4.52876e-06
1.25271e-07
4.52636e-06
1.46187e-07
4.52728e-06
1.68681e-07
1.90613e-07
4.52939e-06
4.75226e-06
7.39752e-08
4.74328e-06
2.10061e-07
4.75429e-06
-8.37225e-08
4.75033e-06
1.97402e-08
4.75242e-06
-1.69255e-08
4.75539e-06
-2.1719e-08
4.754e-06
5.40961e-09
4.75644e-06
-1.79286e-08
4.76007e-06
1.69633e-08
4.75836e-06
-6.29426e-09
4.7631e-06
2.3874e-08
4.75932e-06
2.64817e-08
4.75523e-06
2.84726e-08
4.75282e-06
6.24792e-08
4.7466e-06
7.48253e-08
4.74309e-06
9.83225e-08
4.74088e-06
1.27481e-07
4.7393e-06
1.47764e-07
4.74042e-06
1.6756e-07
1.87953e-07
4.74308e-06
4.97908e-06
6.36971e-08
4.97005e-06
2.19084e-07
4.9796e-06
-9.32667e-08
4.97816e-06
2.11741e-08
4.97779e-06
-1.65495e-08
4.983e-06
-2.69361e-08
4.98088e-06
7.5385e-09
4.9827e-06
-1.97517e-08
4.98698e-06
1.26818e-08
4.98395e-06
-3.26792e-09
4.98693e-06
2.0901e-08
4.98283e-06
3.05788e-08
4.97732e-06
3.39805e-08
4.97437e-06
6.54344e-08
4.96895e-06
8.02419e-08
4.96548e-06
1.01791e-07
4.9636e-06
1.29362e-07
4.96284e-06
1.48524e-07
4.96403e-06
1.66371e-07
1.84851e-07
4.96713e-06
5.21657e-06
5.34398e-08
5.208e-06
2.2766e-07
5.21515e-06
-1.00414e-07
5.21685e-06
1.94742e-08
5.21405e-06
-1.37506e-08
5.22094e-06
-3.38284e-08
5.2189e-06
9.57496e-09
5.21927e-06
-2.01216e-08
5.22403e-06
7.92443e-09
5.21988e-06
8.83556e-10
5.2206e-06
2.01818e-08
5.21654e-06
3.46408e-08
5.21025e-06
4.02626e-08
5.20686e-06
6.88324e-08
5.20221e-06
8.48833e-08
5.19899e-06
1.05011e-07
5.19753e-06
1.30822e-07
5.19733e-06
1.48725e-07
5.19863e-06
1.65072e-07
1.81398e-07
5.20209e-06
5.46526e-06
4.33732e-08
5.45767e-06
2.35243e-07
5.46161e-06
-1.0435e-07
5.46669e-06
1.4391e-08
5.4619e-06
-8.95591e-09
5.46961e-06
-4.15381e-08
5.4684e-06
1.07801e-08
5.46683e-06
-1.85501e-08
5.47147e-06
3.28681e-09
5.46661e-06
5.74135e-09
5.46501e-06
2.17776e-08
5.4611e-06
3.8552e-08
5.45466e-06
4.67057e-08
5.45097e-06
7.25209e-08
5.44691e-06
8.8948e-08
5.44406e-06
1.07856e-07
5.44318e-06
1.31707e-07
5.44325e-06
1.48652e-07
5.44475e-06
1.63575e-07
1.77683e-07
5.44846e-06
5.72566e-06
3.36711e-08
5.71963e-06
2.41273e-07
5.71986e-06
-1.04575e-07
5.728e-06
6.24811e-09
5.72197e-06
-2.92535e-09
5.72953e-06
-4.91049e-08
5.72963e-06
1.06855e-08
5.72605e-06
-1.49734e-08
5.7298e-06
-4.57214e-10
5.72473e-06
1.08125e-08
5.72103e-06
2.54713e-08
5.71725e-06
4.23348e-08
5.71114e-06
5.28181e-08
5.70729e-06
7.63677e-08
5.7036e-06
9.2638e-08
5.70117e-06
1.10284e-07
5.70093e-06
1.31946e-07
5.70118e-06
1.48406e-07
5.70289e-06
1.61859e-07
1.73794e-07
5.70678e-06
5.99837e-06
2.44962e-08
5.99443e-06
2.45206e-07
5.99083e-06
-1.0097e-07
6.00114e-06
-4.05905e-09
5.99479e-06
3.4254e-09
6.00134e-06
-5.56637e-08
6.00288e-06
9.15231e-09
5.99748e-06
-9.58062e-09
5.99978e-06
-2.75464e-09
5.99486e-06
1.57309e-08
5.98955e-06
3.07857e-08
5.98565e-06
4.62392e-08
5.98022e-06
5.82443e-08
5.97637e-06
8.02177e-08
5.97289e-06
9.61161e-08
5.9709e-06
1.12277e-07
5.9712e-06
1.3164e-07
5.97172e-06
1.47885e-07
5.97364e-06
1.59939e-07
1.69812e-07
5.97763e-06
6.28399e-06
1.59939e-08
6.28262e-06
2.4658e-07
6.27539e-06
-9.37391e-08
6.28662e-06
-1.52897e-08
6.28077e-06
9.26914e-09
6.28573e-06
-6.06211e-08
6.28858e-06
6.29792e-09
6.28154e-06
-2.53929e-09
6.28216e-06
-3.36899e-09
6.27769e-06
2.01936e-08
6.27124e-06
3.7239e-08
6.26703e-06
5.04507e-08
6.26244e-06
6.28388e-08
6.25876e-06
8.38936e-08
6.2554e-06
9.94715e-08
6.25384e-06
1.13844e-07
6.25449e-06
1.30993e-07
6.25546e-06
1.46908e-07
6.2576e-06
1.57803e-07
1.65803e-07
6.26161e-06
6.58318e-06
8.28798e-09
6.58466e-06
2.451e-07
6.57427e-06
-8.33557e-08
6.5852e-06
-2.62178e-08
6.58035e-06
1.4115e-08
6.58337e-06
-6.36403e-08
6.58729e-06
2.3827e-09
6.57896e-06
5.78638e-09
6.57767e-06
-2.08019e-09
6.57382e-06
2.40453e-08
6.56684e-06
4.42166e-08
6.56215e-06
5.51426e-08
6.55833e-06
6.66663e-08
6.55502e-06
8.71943e-08
6.55181e-06
1.02684e-07
6.55057e-06
1.15085e-07
6.55142e-06
1.30144e-07
6.55295e-06
1.45373e-07
6.55536e-06
1.55395e-07
1.61788e-07
6.55938e-06
6.8966e-06
1.47518e-09
6.90102e-06
2.40682e-07
6.88818e-06
-7.05138e-08
6.89786e-06
-3.59003e-08
6.89394e-06
1.80417e-08
6.89494e-06
-6.46467e-08
6.8996e-06
-2.28035e-09
6.89065e-06
1.47433e-08
6.88716e-06
1.40839e-09
6.88399e-06
2.72157e-08
6.877e-06
5.12096e-08
6.87179e-06
6.03499e-08
6.86848e-06
6.99746e-08
6.86574e-06
8.99376e-08
6.8628e-06
1.05623e-07
6.86172e-06
1.1616e-07
6.86271e-06
1.2916e-07
6.8648e-06
1.43284e-07
6.86755e-06
1.52638e-07
1.57742e-07
6.8716e-06
7.22499e-06
-4.37542e-09
7.23222e-06
2.33453e-07
7.21775e-06
-5.60457e-08
7.22559e-06
-4.3742e-08
7.22216e-06
2.14743e-08
7.22093e-06
-6.34159e-08
7.22608e-06
-7.43846e-09
7.21724e-06
2.3592e-08
7.21158e-06
7.06789e-09
7.20884e-06
2.99532e-08
7.20239e-06
5.76562e-08
7.19668e-06
6.60632e-08
7.19358e-06
7.30696e-08
7.1915e-06
9.20261e-08
7.18902e-06
1.08095e-07
7.188e-06
1.17182e-07
7.18906e-06
1.28099e-07
7.19163e-06
1.40712e-07
7.19481e-06
1.49465e-07
1.536e-07
7.19895e-06
7.56907e-06
-9.22349e-09
7.57887e-06
2.23656e-07
7.56353e-06
-4.07034e-08
7.56933e-06
-4.95395e-08
7.56592e-06
2.48789e-08
7.56219e-06
-5.96845e-08
7.56735e-06
-1.26021e-08
7.55932e-06
3.163e-08
7.55174e-06
1.46463e-08
7.54918e-06
3.25126e-08
7.54362e-06
6.32112e-08
7.53759e-06
7.21004e-08
7.53439e-06
7.62636e-08
7.53294e-06
9.34766e-08
7.53113e-06
1.09908e-07
7.53016e-06
1.18147e-07
7.53124e-06
1.27025e-07
7.53417e-06
1.37776e-07
7.5378e-06
1.45842e-07
1.49282e-07
7.54212e-06
7.92965e-06
-1.30591e-08
7.94164e-06
2.11666e-07
7.92614e-06
-2.52099e-08
7.92974e-06
-5.31318e-08
7.92644e-06
2.81758e-08
7.91972e-06
-5.29639e-08
7.92409e-06
-1.69741e-08
7.91751e-06
3.82073e-08
7.90863e-06
2.35324e-08
7.90582e-06
3.5317e-08
7.90137e-06
6.76605e-08
7.89526e-06
7.82161e-08
7.89172e-06
7.97996e-08
7.89079e-06
9.44127e-08
7.88977e-06
1.10927e-07
7.88898e-06
1.18936e-07
7.89002e-06
1.25978e-07
7.89318e-06
1.34622e-07
7.89723e-06
1.41787e-07
1.44711e-07
7.9018e-06
8.30752e-06
-1.59003e-08
8.32131e-06
1.97881e-07
8.30615e-06
-1.00491e-08
8.3076e-06
-5.4582e-08
8.30457e-06
3.12005e-08
8.29481e-06
-4.32016e-08
8.29732e-06
-1.94847e-08
8.29242e-06
4.31039e-08
8.28299e-06
3.29677e-08
8.27968e-06
3.86281e-08
8.27635e-06
7.0992e-08
8.27044e-06
8.41203e-08
8.26646e-06
8.37842e-08
8.2658e-06
9.50673e-08
8.26563e-06
1.11098e-07
8.26519e-06
1.19379e-07
8.26623e-06
1.24939e-07
8.26946e-06
1.3139e-07
8.27387e-06
1.37377e-07
1.39836e-07
8.27874e-06
8.70356e-06
-1.77955e-08
8.71874e-06
1.82703e-07
8.70422e-06
4.46219e-09
8.70376e-06
-5.41137e-08
8.7009e-06
3.40589e-08
8.68857e-06
-3.087e-08
8.68853e-06
-1.94461e-08
8.68501e-06
4.66208e-08
8.67545e-06
4.25252e-08
8.6716e-06
4.24842e-08
8.66926e-06
7.33265e-08
8.6639e-06
8.9485e-08
8.65951e-06
8.81687e-08
8.65885e-06
9.57287e-08
8.65947e-06
1.10475e-07
8.65956e-06
1.19296e-07
8.66067e-06
1.23822e-07
8.66389e-06
1.28179e-07
8.66854e-06
1.32724e-07
1.34652e-07
8.67372e-06
9.11865e-06
-1.88264e-08
9.13465e-06
1.66699e-07
9.1214e-06
1.77127e-08
9.1186e-06
-5.13108e-08
9.1162e-06
3.64584e-08
9.10221e-06
-1.68795e-08
9.09921e-06
-1.64473e-08
9.09622e-06
4.9608e-08
9.08696e-06
5.1786e-08
9.08248e-06
4.69643e-08
9.08091e-06
7.48964e-08
9.07641e-06
9.39907e-08
9.07179e-06
9.2787e-08
9.07089e-06
9.66266e-08
9.07211e-06
1.09253e-07
9.07287e-06
1.18536e-07
9.0742e-06
1.22498e-07
9.07735e-06
1.25028e-07
9.08212e-06
1.27953e-07
1.29201e-07
9.08757e-06
9.55372e-06
-1.90899e-08
9.56986e-06
1.50562e-07
9.55844e-06
2.91348e-08
9.55318e-06
-4.60527e-08
9.55111e-06
3.85266e-08
9.53641e-06
-2.17669e-09
9.53051e-06
-1.05441e-08
9.52742e-06
5.26963e-08
9.51844e-06
6.07615e-08
9.51326e-06
5.21495e-08
9.51218e-06
7.59744e-08
9.50877e-06
9.74035e-08
9.50418e-06
9.73703e-08
9.50291e-06
9.78979e-08
9.50447e-06
1.077e-07
9.50596e-06
1.1704e-07
9.50765e-06
1.20814e-07
9.51076e-06
1.2191e-07
9.51555e-06
1.23165e-07
1.23561e-07
9.52119e-06
1.00097e-05
-1.86807e-08
1.00254e-05
1.34863e-07
1.00161e-05
3.85001e-08
1.00086e-05
-3.85892e-08
1.00063e-05
4.0794e-08
9.99163e-06
1.25183e-08
9.98337e-06
-2.27711e-09
9.97974e-06
5.63185e-08
9.97093e-06
6.95716e-08
9.96495e-06
5.81374e-08
9.96403e-06
7.68896e-08
9.96178e-06
9.96528e-08
9.95759e-06
1.01565e-07
9.95593e-06
9.95535e-08
9.95754e-06
1.06097e-07
9.95971e-06
1.14861e-07
9.9619e-06
1.18631e-07
9.96506e-06
1.18742e-07
9.96981e-06
1.18423e-07
1.17822e-07
9.97554e-06
1.04877e-05
-1.76935e-08
1.05026e-05
1.19965e-07
1.04949e-05
4.61475e-08
1.0486e-05
-2.96783e-08
1.04829e-05
4.38476e-08
1.04686e-05
2.68126e-08
1.04586e-05
7.8076e-09
1.04542e-05
6.06488e-08
1.04456e-05
7.82194e-08
1.04387e-05
6.50381e-08
1.04375e-05
7.80363e-08
1.04363e-05
1.00861e-07
1.04329e-05
1.05026e-07
1.0431e-05
1.01453e-07
1.04324e-05
1.04671e-07
1.04351e-05
1.12146e-07
1.04379e-05
1.15868e-07
1.04412e-05
1.15403e-07
1.04459e-05
1.13742e-07
1.12064e-07
1.04516e-05
1.09885e-05
-1.62243e-08
1.10025e-05
1.06036e-07
1.09959e-05
5.26982e-08
1.09861e-05
-1.9805e-08
1.09823e-05
4.75583e-08
1.09682e-05
4.09225e-08
1.09568e-05
1.92577e-08
1.09518e-05
6.56031e-08
1.09435e-05
8.65913e-08
1.09356e-05
7.285e-08
1.09338e-05
7.98368e-08
1.09334e-05
1.01285e-07
1.09309e-05
1.07569e-07
1.0929e-05
1.03329e-07
1.09301e-05
1.0353e-07
1.09332e-05
1.09101e-07
1.09365e-05
1.12522e-07
1.09402e-05
1.11768e-07
1.09448e-05
1.09079e-07
1.0634e-07
1.09506e-05
1.15135e-05
-1.43672e-08
1.15258e-05
9.37177e-08
1.15207e-05
5.78145e-08
1.15097e-05
-8.84443e-09
1.15052e-05
5.20815e-08
1.14916e-05
5.45421e-08
1.1479e-05
3.18976e-08
1.14735e-05
7.10952e-08
1.14655e-05
9.45487e-08
1.1457e-05
8.13686e-08
1.14542e-05
8.26239e-08
1.14542e-05
1.01307e-07
1.14526e-05
1.0916e-07
1.1451e-05
1.04926e-07
1.14519e-05
1.02613e-07
1.14551e-05
1.05928e-07
1.14589e-05
1.08676e-07
1.1463e-05
1.07749e-07
1.14677e-05
1.04354e-07
1.00658e-07
1.14734e-05
1.20637e-05
-1.22003e-08
1.20742e-05
8.32218e-08
1.207e-05
6.19672e-08
1.20583e-05
2.86723e-09
1.20529e-05
5.74216e-08
1.20399e-05
6.75938e-08
1.20263e-05
4.55094e-08
1.20202e-05
7.72202e-08
1.20127e-05
1.01964e-07
1.20038e-05
9.02781e-08
1.19999e-05
8.6518e-08
1.19999e-05
1.01383e-07
1.19991e-05
1.09905e-07
1.1998e-05
1.06092e-07
1.19988e-05
1.01763e-07
1.2002e-05
1.02751e-07
1.20062e-05
1.04455e-07
1.20106e-05
1.03317e-07
1.20155e-05
9.9478e-08
9.49809e-08
1.20212e-05
1.26402e-05
-9.77272e-09
1.26488e-05
7.46244e-08
1.26451e-05
6.56504e-08
1.26328e-05
1.5128e-08
1.26265e-05
6.37289e-08
1.26141e-05
7.99627e-08
1.26e-05
5.96095e-08
1.2593e-05
8.42215e-08
1.25861e-05
1.08874e-07
1.25772e-05
9.92106e-08
1.25723e-05
9.14531e-08
1.25718e-05
1.01867e-07
1.25716e-05
1.10073e-07
1.2571e-05
1.06752e-07
1.25719e-05
1.00863e-07
1.2575e-05
9.95649e-08
1.25795e-05
9.99921e-08
1.25843e-05
9.84941e-08
1.25894e-05
9.43773e-08
8.92479e-08
1.25952e-05
1.32443e-05
-7.11282e-09
1.32511e-05
6.78311e-08
1.32472e-05
6.95224e-08
1.32346e-05
2.77713e-08
1.32275e-05
7.0817e-08
1.32157e-05
9.17719e-08
1.32013e-05
7.39912e-08
1.31935e-05
9.19799e-08
1.31869e-05
1.15529e-07
1.31782e-05
1.07891e-07
1.31724e-05
9.72418e-08
1.31713e-05
1.02976e-07
1.31714e-05
1.09961e-07
1.31712e-05
1.06943e-07
1.31722e-05
9.98404e-08
1.31755e-05
9.63332e-08
1.31801e-05
9.53447e-08
1.31853e-05
9.33448e-08
1.31906e-05
8.90213e-08
8.33883e-08
1.31965e-05
1.38773e-05
-4.23836e-09
1.38822e-05
6.29679e-08
1.3878e-05
7.36686e-08
1.38649e-05
4.08472e-08
1.38571e-05
7.86329e-08
1.38459e-05
1.03035e-07
1.38314e-05
8.83993e-08
1.38228e-05
1.00608e-07
1.38163e-05
1.22072e-07
1.38079e-05
1.16284e-07
1.38015e-05
1.03588e-07
1.37997e-05
1.04838e-07
1.37998e-05
1.09808e-07
1.38e-05
1.06782e-07
1.38011e-05
9.86789e-08
1.38044e-05
9.305e-08
1.38093e-05
9.05145e-08
1.38147e-05
8.79231e-08
1.38203e-05
8.34159e-08
7.73334e-08
1.38263e-05
1.45406e-05
-1.16475e-09
1.45435e-05
6.00811e-08
1.45391e-05
7.80791e-08
1.45257e-05
5.42614e-08
1.45169e-05
8.7366e-08
1.45063e-05
1.13671e-07
1.44919e-05
1.02812e-07
1.44823e-05
1.10171e-07
1.44758e-05
1.28622e-07
1.44676e-05
1.24445e-07
1.44609e-05
1.10296e-07
1.44583e-05
1.07446e-07
1.44583e-05
1.09835e-07
1.44587e-05
1.06372e-07
1.44599e-05
9.7423e-08
1.44632e-05
8.97281e-08
1.44682e-05
8.55246e-08
1.44739e-05
8.22412e-08
1.44797e-05
7.762e-08
7.10145e-08
1.4486e-05
1.52356e-05
2.08994e-09
1.52368e-05
5.89363e-08
1.52316e-05
8.32044e-08
1.52183e-05
6.76225e-08
1.52085e-05
9.71057e-08
1.51982e-05
1.24044e-07
1.51841e-05
1.16929e-07
1.51735e-05
1.20721e-07
1.51667e-05
1.3544e-07
1.51588e-05
1.32349e-07
1.51517e-05
1.17385e-07
1.51484e-05
1.107e-07
1.5148e-05
1.10239e-07
1.51486e-05
1.05843e-07
1.51499e-05
9.61133e-08
1.51532e-05
8.64224e-08
1.51583e-05
8.04105e-08
1.51642e-05
7.62918e-08
1.51704e-05
7.14917e-08
6.45151e-08
1.51769e-05
1.59639e-05
5.50643e-09
1.59632e-05
5.96216e-08
1.59577e-05
8.86992e-08
1.59443e-05
8.1041e-08
1.59335e-05
1.07875e-07
1.59232e-05
1.3435e-07
1.59095e-05
1.30675e-07
1.58981e-05
1.32119e-07
1.58906e-05
1.4296e-07
1.58829e-05
1.4004e-07
1.58754e-05
1.24827e-07
1.58715e-05
1.14674e-07
1.58706e-05
1.11119e-07
1.58711e-05
1.05356e-07
1.58724e-05
9.47958e-08
1.58756e-05
8.32425e-08
1.58807e-05
7.52445e-08
1.58869e-05
7.01379e-08
1.58937e-05
6.46854e-08
5.80232e-08
1.59002e-05
1.67271e-05
9.02706e-09
1.67248e-05
6.19397e-08
1.67188e-05
9.46136e-08
1.67054e-05
9.44689e-08
1.66938e-05
1.19517e-07
1.66832e-05
1.44977e-07
1.66697e-05
1.44087e-07
1.66577e-05
1.44128e-07
1.66492e-05
1.51518e-07
1.66414e-05
1.47845e-07
1.66337e-05
1.32537e-07
1.66289e-05
1.19474e-07
1.66273e-05
1.12636e-07
1.66276e-05
1.05051e-07
1.66289e-05
9.353e-08
1.66318e-05
8.03345e-08
1.66368e-05
7.02205e-08
1.66433e-05
6.37061e-08
1.66507e-05
5.73036e-08
5.10637e-08
1.66576e-05
1.75268e-05
1.25705e-08
1.75234e-05
6.53478e-08
1.75167e-05
1.01351e-07
1.75033e-05
1.07829e-07
1.74909e-05
1.31908e-07
1.74798e-05
1.56112e-07
1.74665e-05
1.574e-07
1.7454e-05
1.56595e-07
1.74443e-05
1.61202e-07
1.74359e-05
1.56259e-07
1.74279e-05
1.40582e-07
1.74222e-05
1.2515e-07
1.74198e-05
1.1503e-07
1.74197e-05
1.05145e-07
1.74208e-05
9.24194e-08
1.74233e-05
7.77968e-08
1.7428e-05
6.55451e-08
1.74348e-05
5.69503e-08
1.74425e-05
4.95587e-08
4.29906e-08
1.74506e-05
1.83648e-05
1.60783e-08
1.83604e-05
6.98326e-08
1.83531e-05
1.08615e-07
1.83398e-05
1.21099e-07
1.83267e-05
1.45013e-07
1.83151e-05
1.6776e-07
1.83017e-05
1.70728e-07
1.82887e-05
1.69642e-07
1.82778e-05
1.72061e-07
1.82684e-05
1.65705e-07
1.82597e-05
1.49295e-07
1.82531e-05
1.31772e-07
1.82496e-05
1.18526e-07
1.82487e-05
1.06004e-07
1.82495e-05
9.16544e-08
1.82515e-05
7.5725e-08
1.82558e-05
6.12467e-08
1.82628e-05
4.99959e-08
1.82711e-05
4.12279e-08
3.39055e-08
1.82802e-05
1.92429e-05
1.95204e-08
1.92377e-05
7.5088e-08
1.92299e-05
1.16379e-07
1.92168e-05
1.34218e-07
1.92034e-05
1.58405e-07
1.91909e-05
1.80313e-07
1.91773e-05
1.84255e-07
1.91638e-05
1.83161e-07
1.91517e-05
1.84219e-07
1.91408e-05
1.76533e-07
1.91309e-05
1.59231e-07
1.91231e-05
1.39585e-07
1.91183e-05
1.2335e-07