/*--------------------------------*- C++ -*----------------------------------*\
| =========                 |                                                 |
| \\      /  F ield         | OpenFOAM: The Open Source CFD Toolbox           |
|  \\    /   O peration     | Version:  v2012                                 |
|   \\  /    A nd           | Website:  www.openfoam.com                      |
|    \\/     M anipulation  |                                                 |
\*---------------------------------------------------------------------------*/
FoamFile
{
    version     2.0;
    format      ascii;
    class       volVectorField;
    location    "0.2";
    object      U;
}
// * * * * * * * * * * * * * * * * * * * * * * * * * * * * * * * * * * * * * //

dimensions      [0 1 -1 0 0 0 0];


internalField   nonuniform List<vector> 
17600
(
(0.835868 0.00071145 0)
(1.16443 0.000370584 0)
(0.84611 -0.000204648 0)
(1.1529 0.00177981 0)
(0.850644 0.00415868 0)
(1.13077 0.0033502 0)
(0.847307 0.00184815 0)
(1.11497 -0.00232281 0)
(0.844694 -0.00276427 0)
(1.10923 -0.00492324 0)
(0.843623 -0.0032116 0)
(1.10472 -0.00365541 0)
(0.848744 -0.00105506 0)
(1.09866 -0.0013263 0)
(0.848972 0.00132669 0)
(1.09413 0.000214012 0)
(0.844182 0.00267736 0)
(1.09114 0.000653189 0)
(0.832941 0.00370481 0)
(1.08836 0.000999515 0)
(0.845133 0.000625912 0)
(1.15314 0.000484334 0)
(0.857205 -0.000300527 0)
(1.14076 0.00190094 0)
(0.8649 0.00414482 0)
(1.11419 0.00355881 0)
(0.868486 0.00180451 0)
(1.09385 -0.00206853 0)
(0.870676 -0.00292033 0)
(1.08434 -0.00467043 0)
(0.873133 -0.00339536 0)
(1.07487 -0.00349563 0)
(0.884122 -0.00122797 0)
(1.06056 -0.00111195 0)
(0.896234 0.00130052 0)
(1.04129 0.000431381 0)
(0.912006 0.00297788 0)
(1.01416 0.00051905 0)
(0.932829 0.00509851 0)
(0.973306 0.00012666 0)
(0.863617 0.000557678 0)
(1.13107 0.000561027 0)
(0.879192 -0.000375149 0)
(1.11648 0.00201934 0)
(0.891163 0.00421165 0)
(1.08525 0.00370923 0)
(0.901786 0.00184322 0)
(1.06265 -0.00190854 0)
(0.909028 -0.00297416 0)
(1.04923 -0.00453811 0)
(0.915119 -0.00341907 0)
(1.03473 -0.00351602 0)
(0.928903 -0.0011039 0)
(1.01678 -0.00122701 0)
(0.943107 0.00155484 0)
(0.99733 0.000225028 0)
(0.956436 0.00339445 0)
(0.978529 0.000345752 0)
(0.964493 0.00553534 0)
(0.962394 0.00106623 0)
(0.888892 0.000538803 0)
(1.10169 0.000566847 0)
(0.907811 -0.000378359 0)
(1.08501 0.00205653 0)
(0.921521 0.00437044 0)
(1.05288 0.00371282 0)
(0.935383 0.00195725 0)
(1.03304 -0.00189282 0)
(0.944598 -0.00288802 0)
(1.01912 -0.00454612 0)
(0.950015 -0.00326743 0)
(1.00468 -0.00365066 0)
(0.959303 -0.000858219 0)
(0.991417 -0.00141578 0)
(0.96645 0.00184166 0)
(0.981021 4.31201e-05 0)
(0.970555 0.00367994 0)
(0.974027 0.000334308 0)
(0.969452 0.00569542 0)
(0.968326 0.00209109 0)
(0.916782 0.00056619 0)
(1.07061 0.000512755 0)
(0.936785 -0.000319816 0)
(1.05372 0.00203569 0)
(0.948298 0.00457042 0)
(1.02568 0.00363768 0)
(0.961304 0.00207926 0)
(1.01283 -0.00194031 0)
(0.969227 -0.00275432 0)
(1.00175 -0.00457546 0)
(0.970878 -0.00308396 0)
(0.990543 -0.00373395 0)
(0.973642 -0.00066916 0)
(0.982917 -0.00148791 0)
(0.974721 0.00200395 0)
(0.978369 -3.6792e-06 0)
(0.9747 0.00380769 0)
(0.975505 0.000426589 0)
(0.97225 0.00579348 0)
(0.971301 0.00301293 0)
(0.942899 0.000628321 0)
(1.04338 0.000422 0)
(0.960941 -0.000229861 0)
(1.02874 0.00200698 0)
(0.967643 0.0047587 0)
(1.00811 0.00354591 0)
(0.977802 0.00215144 0)
(1.00313 -0.00199443 0)
(0.983299 -0.00263454 0)
(0.995498 -0.00456954 0)
(0.981364 -0.00292563 0)
(0.98706 -0.003732 0)
(0.979781 -0.000542418 0)
(0.982122 -0.00147922 0)
(0.978247 0.00208462 0)
(0.979424 4.24785e-06 0)
(0.977377 0.00385515 0)
(0.977559 0.000570831 0)
(0.97525 0.0058434 0)
(0.974026 0.00383483 0)
(0.964127 0.00070654 0)
(1.0234 0.000323382 0)
(0.97803 -0.000132426 0)
(1.01255 0.0020012 0)
(0.979795 0.0048988 0)
(0.99974 0.00346042 0)
(0.987349 0.00215947 0)
(1.00057 -0.00203758 0)
(0.990878 -0.00253746 0)
(0.995181 -0.00453212 0)
(0.98691 -0.0027838 0)
(0.988132 -0.00368241 0)
(0.983428 -0.000437635 0)
(0.983915 -0.00143965 0)
(0.981108 0.00213249 0)
(0.981657 3.90656e-05 0)
(0.980161 0.00384625 0)
(0.9802 0.000781222 0)
(0.978345 0.00580684 0)
(0.977281 0.00460917 0)
(0.979306 0.00078102 0)
(1.01106 0.000239048 0)
(0.988554 -4.52081e-05 0)
(1.0041 0.00202052 0)
(0.987112 0.00498006 0)
(0.997489 0.00338163 0)
(0.993167 0.00212274 0)
(1.00124 -0.00206919 0)
(0.995381 -0.00245197 0)
(0.996805 -0.00447906 0)
(0.990597 -0.00264779 0)
(0.990474 -0.00361393 0)
(0.986624 -0.000336224 0)
(0.986528 -0.00138576 0)
(0.984166 0.00216333 0)
(0.984479 0.000102202 0)
(0.98325 0.00378781 0)
(0.983255 0.00105528 0)
(0.981647 0.0056957 0)
(0.980762 0.00533702 0)
(0.988977 0.000838333 0)
(1.00462 0.000177631 0)
(0.994391 2.28577e-05 0)
(1.00068 0.00205066 0)
(0.991895 0.00501184 0)
(0.998198 0.00330435 0)
(0.997268 0.00206806 0)
(1.00272 -0.00208994 0)
(0.998461 -0.00236773 0)
(0.998504 -0.00441886 0)
(0.993436 -0.00251771 0)
(0.992784 -0.00353786 0)
(0.989614 -0.000241827 0)
(0.989235 -0.00132141 0)
(0.98729 0.00217501 0)
(0.987423 0.000196757 0)
(0.986422 0.00368665 0)
(0.986339 0.00138187 0)
(0.984943 0.00554338 0)
(0.984146 0.0059985 0)
(0.994555 0.00087457 0)
(1.00175 0.000136331 0)
(0.997453 7.59733e-05 0)
(0.999768 0.00207597 0)
(0.995395 0.00500888 0)
(0.99981 0.00322557 0)
(1.00038 0.00201458 0)
(1.004 -0.0020985 0)
(1.00065 -0.00227949 0)
(0.999722 -0.00435334 0)
(0.995586 -0.002397 0)
(0.994617 -0.00345807 0)
(0.992154 -0.000164789 0)
(0.991596 -0.00124443 0)
(0.99009 0.00215817 0)
(0.990059 0.000324948 0)
(0.989272 0.00355126 0)
(0.989074 0.00174748 0)
(0.987859 0.00538123 0)
(0.987115 0.00656953 0)
(0.997525 0.000892792 0)
(1.00061 0.000108362 0)
(0.999047 0.00011963 0)
(0.999782 0.00208731 0)
(0.998001 0.0049828 0)
(1.00133 0.00314549 0)
(1.00263 0.00197119 0)
(1.00486 -0.00209381 0)
(1.00212 -0.00218583 0)
(1.00045 -0.00428188 0)
(0.997064 -0.00228788 0)
(0.995886 -0.00337478 0)
(0.994044 -0.000111623 0)
(0.993383 -0.00115083 0)
(0.992255 0.00210458 0)
(0.992105 0.000487654 0)
(0.991487 0.00339 0)
(0.991198 0.00213407 0)
(0.990133 0.00523854 0)
(0.989442 0.00703203 0)
(0.999011 0.000898384 0)
(1.00017 8.81169e-05 0)
(0.999883 0.000158149 0)
(1.00001 0.0020832 0)
(0.999788 0.00494126 0)
(1.00242 0.00306531 0)
(1.00407 0.0019393 0)
(1.00534 -0.00207678 0)
(1.003 -0.00208772 0)
(1.00083 -0.00420344 0)
(0.997961 -0.00219084 0)
(0.996669 -0.00328513 0)
(0.995267 -8.46935e-05 0)
(0.994566 -0.00103867 0)
(0.9937 0.00201343 0)
(0.993485 0.000681136 0)
(0.99298 0.00321392 0)
(0.992644 0.00251776 0)
(0.991707 0.00514158 0)
(0.991084 0.0073786 0)
(0.999713 0.000895987 0)
(1.00001 7.26207e-05 0)
(1.00031 0.000193944 0)
(1.00023 0.00206672 0)
(1.00087 0.00488926 0)
(1.00307 0.00298578 0)
(1.00486 0.00191617 0)
(1.00556 -0.00204928 0)
(1.00345 -0.00198772 0)
(1.00101 -0.00411609 0)
(0.998437 -0.00210631 0)
(0.997106 -0.00318365 0)
(0.995962 -8.47195e-05 0)
(0.995255 -0.000906 0)
(0.994538 0.0018917 0)
(0.994293 0.000896504 0)
(0.993861 0.00304152 0)
(0.993512 0.00287352 0)
(0.992696 0.00510753 0)
(0.992152 0.00761458 0)
(1.00002 0.000888477 0)
(0.999938 6.12009e-05 0)
(1.00052 0.000228085 0)
(1.00038 0.00204219 0)
(1.00143 0.00483007 0)
(1.00338 0.00290715 0)
(1.00519 0.0018977 0)
(1.00563 -0.002013 0)
(1.00363 -0.00188932 0)
(1.00108 -0.00401661 0)
(0.998657 -0.00203557 0)
(0.997332 -0.00306411 0)
(0.996315 -0.000111538 0)
(0.995615 -0.000751513 0)
(0.994967 0.0017502 0)
(0.994708 0.00112048 0)
(0.994328 0.00289536 0)
(0.993989 0.00318151 0)
(0.99329 0.00513866 0)
(0.99283 0.0077569 0)
(1.00015 0.000877312 0)
(0.999914 5.30346e-05 0)
(1.00062 0.000260824 0)
(1.00049 0.00201329 0)
(1.00167 0.00476528 0)
(1.00348 0.00282992 0)
(1.00527 0.00188014 0)
(1.0056 -0.00196874 0)
(1.00366 -0.00179592 0)
(1.0011 -0.0039018 0)
(0.998748 -0.00198023 0)
(0.99745 -0.00292244 0)
(0.99649 -0.000162014 0)
(0.995793 -0.000579454 0)
(0.995176 0.00160103 0)
(0.994904 0.00133684 0)
(0.994568 0.00279273 0)
(0.994253 0.0034338 0)
(0.993666 0.00522449 0)
(0.993292 0.00782961 0)
(1.0002 0.000862984 0)
(0.999907 4.86004e-05 0)
(1.00068 0.000291798 0)
(1.00057 0.00198288 0)
(1.00176 0.00469489 0)
(1.00348 0.00275518 0)
(1.00522 0.00186028 0)
(1.00553 -0.0019153 0)
(1.00363 -0.00171112 0)
(1.0011 -0.00376929 0)
(0.998786 -0.00194162 0)
(0.997521 -0.00275772 0)
(0.996591 -0.000228091 0)
(0.995891 -0.000399259 0)
(0.995291 0.0014589 0)
(0.995005 0.00153103 0)
(0.994711 0.00273953 0)
(0.994429 0.00363542 0)
(0.993945 0.00534677 0)
(0.993653 0.00785932 0)
(1.00022 0.000845468 0)
(0.999905 4.9056e-05 0)
(1.00071 0.000320102 0)
(1.00064 0.00195297 0)
(1.00178 0.00461837 0)
(1.00342 0.00268404 0)
(1.00512 0.0018354 0)
(1.00545 -0.00185026 0)
(1.00357 -0.0016377 0)
(1.00109 -0.003618 0)
(0.998807 -0.00191889 0)
(0.997574 -0.00257412 0)
(0.99667 -0.000295436 0)
(0.995961 -0.000205496 0)
(0.995376 0.0013416 0)
(0.995078 0.00169447 0)
(0.994825 0.00273262 0)
(0.994585 0.00379538 0)
(0.994194 0.00548201 0)
(0.993978 0.00786905 0)
(1.00024 0.000824561 0)
(0.999904 5.47738e-05 0)
(1.00074 0.0003446 0)
(1.00071 0.00192501 0)
(1.00177 0.00453488 0)
(1.00335 0.00261792 0)
(1.005 0.00180299 0)
(1.00535 -0.00177192 0)
(1.00351 -0.0015771 0)
(1.00107 -0.00344744 0)
(0.998825 -0.00190927 0)
(0.997622 -0.00237405 0)
(0.996749 -0.000376166 0)
(0.996026 -1.49765e-05 0)
(0.995456 0.00125859 0)
(0.995151 0.00182797 0)
(0.994936 0.00276705 0)
(0.994747 0.00392162 0)
(0.994439 0.00560778 0)
(0.994291 0.00787064 0)
(1.00025 0.000799925 0)
(0.999902 6.75545e-05 0)
(1.00078 0.000363973 0)
(1.00077 0.0019005 0)
(1.00177 0.00444285 0)
(1.00327 0.00255874 0)
(1.00487 0.00176115 0)
(1.00524 -0.00167983 0)
(1.00344 -0.00152952 0)
(1.00104 -0.00325893 0)
(0.998844 -0.00190957 0)
(0.997668 -0.00216204 0)
(0.996831 -0.000458779 0)
(0.996094 0.000147541 0)
(0.99554 0.00121002 0)
(0.995233 0.00193762 0)
(0.995054 0.0028379 0)
(0.99492 0.00402342 0)
(0.99469 0.00570691 0)
(0.9946 0.00786135 0)
(1.00027 0.000771304 0)
(0.9999 8.80871e-05 0)
(1.00081 0.000376559 0)
(1.00084 0.00188119 0)
(1.00176 0.00434045 0)
(1.00319 0.00250909 0)
(1.00474 0.00170774 0)
(1.00513 -0.00157306 0)
(1.00337 -0.00149503 0)
(1.00101 -0.00305507 0)
(0.998867 -0.00191583 0)
(0.997714 -0.00195129 0)
(0.996917 -0.000513508 0)
(0.996168 0.000282595 0)
(0.995627 0.00119219 0)
(0.995326 0.002026 0)
(0.995179 0.00293737 0)
(0.995103 0.00411473 0)
(0.994948 0.00577053 0)
(0.994905 0.00783105 0)
(1.00028 0.000738121 0)
(0.999897 0.000117052 0)
(1.00084 0.000381457 0)
(1.0009 0.00186847 0)
(1.00175 0.00422642 0)
(1.0031 0.00247153 0)
(1.00461 0.00164044 0)
(1.00503 -0.0014489 0)
(1.00331 -0.00147588 0)
(1.00098 -0.00283743 0)
(0.998892 -0.00192394 0)
(0.997761 -0.00175232 0)
(0.997005 -0.00053811 0)
(0.996248 0.000397166 0)
(0.995718 0.0012044 0)
(0.995431 0.00209639 0)
(0.995312 0.00305559 0)
(0.995292 0.0042135 0)
(0.99521 0.00580523 0)
(0.995208 0.00777415 0)
(1.0003 0.000700519 0)
(0.999894 0.000153538 0)
(1.00088 0.000376745 0)
(1.00097 0.00186311 0)
(1.00174 0.00410027 0)
(1.00302 0.00244608 0)
(1.00448 0.00156191 0)
(1.00491 -0.001312 0)
(1.00324 -0.00146399 0)
(1.00095 -0.00261513 0)
(0.998917 -0.00192115 0)
(0.997811 -0.00157082 0)
(0.997094 -0.000543251 0)
(0.996334 0.00049284 0)
(0.995812 0.00124254 0)
(0.995548 0.00215033 0)
(0.995454 0.00317606 0)
(0.995484 0.00432657 0)
(0.995473 0.00582679 0)
(0.995509 0.00769078 0)
(1.00031 0.000658092 0)
(0.99989 0.000199125 0)
(1.00091 0.000360628 0)
(1.00104 0.00186713 0)
(1.00173 0.00395964 0)
(1.00293 0.00243333 0)
(1.00435 0.00147452 0)
(1.0048 -0.00116896 0)
(1.00317 -0.00144883 0)
(1.00092 -0.0023978 0)
(0.998944 -0.00189287 0)
(0.997862 -0.00140876 0)
(0.997186 -0.000528359 0)
(0.996427 0.000570032 0)
(0.995909 0.0013011 0)
(0.995674 0.00219278 0)
(0.995608 0.00328257 0)
(0.995679 0.00444522 0)
(0.995733 0.00584803 0)
(0.995805 0.00758426 0)
(1.00033 0.000610361 0)
(0.999886 0.000256627 0)
(1.00094 0.000332286 0)
(1.0011 0.0018819 0)
(1.00171 0.00380481 0)
(1.00284 0.00242957 0)
(1.00422 0.00138223 0)
(1.00468 -0.0010232 0)
(1.00311 -0.00142797 0)
(1.00089 -0.00219378 0)
(0.99897 -0.00183405 0)
(0.997916 -0.00126216 0)
(0.997278 -0.000472296 0)
(0.996527 0.000644071 0)
(0.99601 0.00138381 0)
(0.99581 0.00223926 0)
(0.995775 0.0033725 0)
(0.995878 0.00456031 0)
(0.995988 0.00587713 0)
(0.996094 0.00746611 0)
(1.00035 0.000557303 0)
(0.999881 0.000325646 0)
(1.00097 0.000291924 0)
(1.00117 0.00190416 0)
(1.0017 0.00364302 0)
(1.00274 0.00242852 0)
(1.00409 0.0012871 0)
(1.00457 -0.000879129 0)
(1.00304 -0.00139471 0)
(1.00085 -0.00201225 0)
(0.998996 -0.00175536 0)
(0.997973 -0.00112993 0)
(0.997373 -0.000389257 0)
(0.996633 0.000719965 0)
(0.996114 0.00148793 0)
(0.995951 0.00229982 0)
(0.995954 0.00344626 0)
(0.996084 0.00466412 0)
(0.996236 0.00591312 0)
(0.996374 0.0073493 0)
(1.00036 0.00049844 0)
(0.999875 0.000405931 0)
(1.001 0.000239921 0)
(1.00124 0.00193526 0)
(1.00169 0.00347118 0)
(1.00265 0.00243651 0)
(1.00395 0.00119485 0)
(1.00445 -0.000743227 0)
(1.00297 -0.00133772 0)
(1.00082 -0.00185679 0)
(0.999022 -0.00165644 0)
(0.998033 -0.00101434 0)
(0.99747 -0.000312089 0)
(0.996746 0.000788765 0)
(0.996223 0.00160459 0)
(0.996097 0.00237643 0)
(0.996145 0.00350036 0)
(0.996297 0.0047451 0)
(0.996478 0.00594529 0)
(0.996642 0.00723832 0)
(1.00038 0.000434376 0)
(0.999866 0.000497293 0)
(1.00103 0.000173871 0)
(1.0013 0.00197482 0)
(1.00167 0.00329188 0)
(1.00255 0.00244708 0)
(1.00382 0.00111433 0)
(1.00434 -0.000627229 0)
(1.0029 -0.00125271 0)
(1.00079 -0.00171944 0)
(0.999048 -0.00153744 0)
(0.998095 -0.000900749 0)
(0.99757 -0.000229496 0)
(0.996869 0.000847694 0)
(0.996339 0.00172786 0)
(0.996244 0.002473 0)
(0.996343 0.00353608 0)
(0.996519 0.00478901 0)
(0.996717 0.00595815 0)
(0.996898 0.0071295 0)
(1.00039 0.000365417 0)
(0.999855 0.000598832 0)
(1.00106 9.57632e-05 0)
(1.00136 0.00201559 0)
(1.00166 0.00311847 0)
(1.00245 0.00244489 0)
(1.00368 0.00105252 0)
(1.00422 -0.000539269 0)
(1.00284 -0.00114728 0)
(1.00076 -0.00159031 0)
(0.999077 -0.00141924 0)
(0.998159 -0.000770711 0)
(0.997671 -0.000134828 0)
(0.997 0.000898069 0)
(0.996464 0.0018521 0)
(0.996392 0.00259703 0)
(0.996546 0.00357221 0)
(0.996749 0.00479099 0)
(0.996955 0.00593898 0)
(0.997143 0.00701678 0)
(1.00041 0.0002911 0)
(0.999841 0.00071076 0)
(1.00109 9.25914e-06 0)
(1.00143 0.00205343 0)
(1.00164 0.00295421 0)
(1.00235 0.00243032 0)
(1.00354 0.00101521 0)
(1.00411 -0.000481623 0)
(1.00277 -0.00102625 0)
(1.00073 -0.00146101 0)
(0.999108 -0.00131118 0)
(0.998225 -0.000633978 0)
(0.997773 -3.10789e-05 0)
(0.997139 0.000940421 0)
(0.996602 0.00195973 0)
(0.996541 0.00274221 0)
(0.996745 0.00363359 0)
(0.996984 0.00476371 0)
(0.997194 0.00587985 0)
(0.99738 0.00689086 0)
(1.00042 0.000211181 0)
(0.999823 0.000834553 0)
(1.00111 -8.44641e-05 0)
(1.00149 0.00208857 0)
(1.00162 0.00279802 0)
(1.00225 0.00239398 0)
(1.0034 0.00101354 0)
(1.004 -0.000448722 0)
(1.0027 -0.000896533 0)
(1.0007 -0.0013213 0)
(0.999142 -0.00120649 0)
(0.998296 -0.000505492 0)
(0.997874 9.58648e-05 0)
(0.997285 0.000989907 0)
(0.996755 0.00203904 0)
(0.996696 0.00288276 0)
(0.996937 0.00372626 0)
(0.997215 0.0047342 0)
(0.997436 0.00578092 0)
(0.997615 0.00673619 0)
(1.00044 0.000127578 0)
(0.999801 0.00096443 0)
(1.00113 -0.000179972 0)
(1.00155 0.00211206 0)
(1.0016 0.00265943 0)
(1.00215 0.00232961 0)
(1.00325 0.00104513 0)
(1.00388 -0.0004334 0)
(1.00263 -0.00076684 0)
(1.00066 -0.00116089 0)
(0.999177 -0.00110956 0)
(0.998373 -0.000380157 0)
(0.997976 0.000246056 0)
(0.997434 0.00105732 0)
(0.996922 0.00209491 0)
(0.996862 0.00299287 0)
(0.997126 0.00383118 0)
(0.997436 0.00473001 0)
(0.997673 0.00566414 0)
(0.997847 0.00654865 0)
(1.00045 4.14543e-05 0)
(0.999774 0.00109712 0)
(1.00115 -0.000271303 0)
(1.00161 0.00210736 0)
(1.00157 0.00255633 0)
(1.00205 0.00223405 0)
(1.0031 0.00109755 0)
(1.00377 -0.000423666 0)
(1.00257 -0.000655857 0)
(1.00063 -0.000976181 0)
(0.999212 -0.00101437 0)
(0.998459 -0.000251133 0)
(0.99808 0.000424673 0)
(0.997582 0.00114931 0)
(0.997098 0.00213885 0)
(0.997041 0.00307073 0)
(0.997315 0.00392139 0)
(0.997645 0.00475427 0)
(0.997897 0.00556219 0)
(0.998075 0.00634392 0)
(1.00046 -4.76341e-05 0)
(0.999742 0.00123469 0)
(1.00116 -0.000355475 0)
(1.00167 0.00207297 0)
(1.00153 0.00249097 0)
(1.00196 0.00210711 0)
(1.00295 0.00116506 0)
(1.00366 -0.000398646 0)
(1.00252 -0.000575828 0)
(1.00059 -0.000772349 0)
(0.999246 -0.000903597 0)
(0.998556 -0.000148442 0)
(0.998187 0.000610481 0)
(0.997725 0.00127182 0)
(0.997279 0.00217743 0)
(0.997232 0.00312199 0)
(0.997511 0.00398399 0)
(0.997846 0.00478484 0)
(0.998104 0.00549041 0)
(0.99829 0.006147 0)
(1.00047 -0.000139034 0)
(0.999705 0.00137198 0)
(1.00116 -0.000424475 0)
(1.00173 0.00200868 0)
(1.00149 0.00246129 0)
(1.00186 0.00195863 0)
(1.0028 0.0012404 0)
(1.00354 -0.000343295 0)
(1.00247 -0.000526764 0)
(1.00055 -0.000563455 0)
(0.999274 -0.000757884 0)
(0.998663 -8.11301e-05 0)
(0.998304 0.000776656 0)
(0.997864 0.00142977 0)
(0.997461 0.00222463 0)
(0.997433 0.00313915 0)
(0.997715 0.00401346 0)
(0.998044 0.00479887 0)
(0.998294 0.00543839 0)
(0.998484 0.00597761 0)
(1.00048 -0.000228434 0)
(0.999663 0.00150005 0)
(1.00115 -0.000470362 0)
(1.0018 0.0019 0)
(1.00144 0.00247233 0)
(1.00176 0.00179565 0)
(1.00265 0.00129903 0)
(1.00341 -0.000254519 0)
(1.00243 -0.000509675 0)
(1.00052 -0.000365039 0)
(0.999294 -0.000579074 0)
(0.998774 -2.80369e-05 0)
(0.998436 0.000904951 0)
(0.998001 0.00161394 0)
(0.997636 0.00230451 0)
(0.997639 0.00312804 0)
(0.997929 0.0040015 0)
(0.998244 0.00478724 0)
(0.998473 0.00538923 0)
(0.998656 0.0058411 0)
(1.00049 -0.000314824 0)
(0.999616 0.00161626 0)
(1.00113 -0.000493026 0)
(1.00187 0.00174328 0)
(1.00139 0.00252169 0)
(1.00166 0.00162995 0)
(1.00251 0.00132811 0)
(1.00327 -0.00012115 0)
(1.0024 -0.000511449 0)
(1.0005 -0.00019289 0)
(0.999305 -0.000366569 0)
(0.998885 3.37987e-05 0)
(0.998586 0.000987335 0)
(0.998144 0.00179444 0)
(0.997798 0.00242498 0)
(0.997841 0.00311702 0)
(0.998152 0.00394252 0)
(0.998452 0.00474065 0)
(0.998647 0.00533279 0)
(0.998807 0.00573056 0)
(1.0005 -0.000399471 0)
(0.999564 0.00171975 0)
(1.00109 -0.000482253 0)
(1.00194 0.00154429 0)
(1.00133 0.00259046 0)
(1.00155 0.00148918 0)
(1.00237 0.00132668 0)
(1.00313 5.45019e-05 0)
(1.00236 -0.000508146 0)
(1.00049 -5.7759e-05 0)
(0.999311 -0.000129617 0)
(0.998988 0.000124392 0)
(0.998752 0.00102616 0)
(0.9983 0.00193667 0)
(0.997949 0.0025753 0)
(0.998028 0.00314049 0)
(0.998378 0.00384954 0)
(0.998671 0.00464324 0)
(0.998824 0.00525571 0)
(0.998945 0.00563147 0)
(1.0005 -0.000476481 0)
(0.999509 0.00180006 0)
(1.00104 -0.000432619 0)
(1.00201 0.00130782 0)
(1.00127 0.00266745 0)
(1.00143 0.00138436 0)
(1.00224 0.00126931 0)
(1.00298 0.000238385 0)
(1.00232 -0.00048106 0)
(1.0005 3.37142e-05 0)
(0.999314 0.000137553 0)
(0.999077 0.000258118 0)
(0.998926 0.00104021 0)
(0.998477 0.00202364 0)
(0.9981 0.00272639 0)
(0.998193 0.00321261 0)
(0.998592 0.0037623 0)
(0.998902 0.00449323 0)
(0.999013 0.00514025 0)
(0.99908 0.00552849 0)
(1.00051 -0.000543707 0)
(0.999453 0.00184982 0)
(1.00096 -0.000339007 0)
(1.00208 0.00103039 0)
(1.00121 0.00273244 0)
(1.00129 0.00132458 0)
(1.00213 0.00116217 0)
(1.00283 0.000434535 0)
(1.00227 -0.000402033 0)
(1.00053 7.00339e-05 0)
(0.999325 0.000405766 0)
(0.999145 0.000451084 0)
(0.999099 0.0010634 0)
(0.998675 0.00205782 0)
(0.99826 0.00284341 0)
(0.998338 0.00331671 0)
(0.99878 0.00372402 0)
(0.999134 0.00431628 0)
(0.999219 0.00497142 0)
(0.999223 0.00540271 0)
(1.0005 -0.000600567 0)
(0.999398 0.00186806 0)
(1.00086 -0.000200042 0)
(1.00216 0.000723335 0)
(1.00115 0.00276939 0)
(1.00114 0.00132461 0)
(1.00202 0.00102181 0)
(1.00268 0.00062436 0)
(1.0022 -0.000262735 0)
(1.00057 7.22281e-05 0)
(0.999351 0.000608379 0)
(0.999197 0.00069613 0)
(0.999259 0.00112121 0)
(0.998887 0.00204568 0)
(0.998438 0.00290816 0)
(0.998475 0.00341675 0)
(0.998935 0.0037421 0)
(0.999347 0.00416196 0)
(0.99944 0.0047541 0)
(0.999386 0.0052345 0)
(1.0005 -0.000646279 0)
(0.999345 0.00185365 0)
(1.00075 -2.51384e-05 0)
(1.00223 0.000415159 0)
(1.00111 0.00275999 0)
(1.00097 0.0013992 0)
(1.00191 0.00085676 0)
(1.00255 0.00076763 0)
(1.00212 -7.32441e-05 0)
(1.00061 7.4708e-05 0)
(0.999401 0.000746718 0)
(0.999241 0.000964964 0)
(0.999394 0.001231 0)
(0.999104 0.00200747 0)
(0.998637 0.00291867 0)
(0.998618 0.00348636 0)
(0.999064 0.00378991 0)
(0.999525 0.0040709 0)
(0.99966 0.00452759 0)
(0.999574 0.00501599 0)
(1.00049 -0.000674539 0)
(0.999299 0.00179268 0)
(1.0006 0.000188597 0)
(1.00229 0.000121862 0)
(1.00109 0.00268335 0)
(1.00077 0.00154697 0)
(1.0018 0.000688716 0)
(1.00243 0.000864908 0)
(1.00201 0.000161787 0)
(1.00065 9.08653e-05 0)
(0.999475 0.000804538 0)
(0.999287 0.0012093 0)
(0.9995 0.00139742 0)
(0.999312 0.00197591 0)
(0.998856 0.0028685 0)
(0.998774 0.0035128 0)
(0.999181 0.00383479 0)
(0.999664 0.00403871 0)
(0.999855 0.00434371 0)
(0.999778 0.00476673 0)
(1.00048 -0.00068386 0)
(0.999261 0.00168711 0)
(1.00044 0.000432279 0)
(1.00234 -0.000135154 0)
(1.00108 0.00253849 0)
(1.00056 0.00173915 0)
(1.00168 0.000554802 0)
(1.00234 0.000871915 0)
(1.0019 0.000432893 0)
(1.00066 0.000159099 0)
(0.999571 0.000798762 0)
(0.999352 0.00139619 0)
(0.999581 0.00161534 0)
(0.999494 0.00199645 0)
(0.999087 0.00277095 0)
(0.998952 0.00348472 0)
(0.999297 0.00385738 0)
(0.999775 0.00403644 0)
(1.00001 0.00422636 0)
(0.999973 0.0045327 0)
(1.00047 -0.000680709 0)
(0.999235 0.0015537 0)
(1.00026 0.000685509 0)
(1.00236 -0.000354276 0)
(1.00111 0.0023299 0)
(1.00035 0.00196088 0)
(1.00154 0.000486594 0)
(1.00228 0.000787816 0)
(1.0018 0.000707701 0)
(1.00065 0.000305355 0)
(0.999675 0.000771163 0)
(0.999445 0.00150557 0)
(0.999651 0.00184117 0)
(0.999637 0.00208472 0)
(0.99931 0.00266654 0)
(0.999154 0.00339208 0)
(0.999427 0.00384392 0)
(0.999871 0.004041 0)
(1.00013 0.00416402 0)
(1.00014 0.00435408 0)
(1.00045 -0.000657502 0)
(0.999223 0.00137922 0)
(1.00007 0.000949274 0)
(1.00236 -0.000523973 0)
(1.00116 0.0020409 0)
(1.00013 0.00217418 0)
(1.00136 0.000488368 0)
(1.00224 0.000647854 0)
(1.00171 0.000928225 0)
(1.0006 0.000524619 0)
(0.999771 0.000758027 0)
(0.999568 0.00153277 0)
(0.999726 0.00202653 0)
(0.999741 0.00223089 0)
(0.999506 0.00260518 0)
(0.999373 0.00324295 0)
(0.999581 0.00377195 0)
(0.999966 0.00403022 0)
(1.00022 0.00413506 0)
(1.00026 0.0042382 0)
(1.00043 -0.000616643 0)
(0.999228 0.00117363 0)
(0.999877 0.00120839 0)
(1.00232 -0.000626014 0)
(1.00125 0.00167819 0)
(0.999931 0.00235671 0)
(1.00114 0.000579533 0)
(1.00221 0.000478829 0)
(1.00165 0.0010641 0)
(1.00053 0.000803722 0)
(0.999842 0.000798648 0)
(0.999713 0.00149475 0)
(0.999826 0.00214393 0)
(0.999819 0.00240853 0)
(0.999655 0.00261884 0)
(0.999586 0.00308296 0)
(0.999766 0.00363239 0)
(1.00008 0.00397994 0)
(1.00029 0.00411826 0)
(1.00034 0.00417392 0)
(1.0004 -0.000561107 0)
(0.999251 0.000948557 0)
(0.99968 0.00143542 0)
(1.00225 -0.000645361 0)
(1.00135 0.0012774 0)
(0.99976 0.00248769 0)
(1.00089 0.000767329 0)
(1.00217 0.000332963 0)
(1.00164 0.00110895 0)
(1.00046 0.00109709 0)
(0.999871 0.000904765 0)
(0.999864 0.00142059 0)
(0.99996 0.00217345 0)
(0.999893 0.00256617 0)
(0.999753 0.00269908 0)
(0.999767 0.00296557 0)
(0.99997 0.00344132 0)
(1.00022 0.00386771 0)
(1.00037 0.00408533 0)
(1.0004 0.00414326 0)
(1.00037 -0.000491191 0)
(0.999292 0.000710935 0)
(0.999494 0.00161876 0)
(1.00213 -0.000572296 0)
(1.00148 0.000865303 0)
(0.999631 0.00252997 0)
(1.00061 0.00102295 0)
(1.00212 0.000228763 0)
(1.00167 0.00106193 0)
(1.00039 0.00136651 0)
(0.999856 0.00108642 0)
(1 0.00135967 0)
(1.00013 0.00212123 0)
(0.999984 0.00266789 0)
(0.999814 0.00282263 0)
(0.999895 0.00292396 0)
(1.00017 0.00324592 0)
(1.00041 0.00368805 0)
(1.00048 0.00400655 0)
(1.00045 0.00411726 0)
(1.00034 -0.000412344 0)
(0.999349 0.000477063 0)
(0.999327 0.00174867 0)
(1.00197 -0.000423486 0)
(1.00161 0.000475585 0)
(0.999556 0.00247882 0)
(1.0003 0.00132535 0)
(1.00202 0.000182418 0)
(1.00173 0.000926749 0)
(1.00035 0.00157014 0)
(0.9998 0.00133556 0)
(1.0001 0.00135242 0)
(1.00032 0.00200824 0)
(1.00011 0.00268948 0)
(0.99986 0.00294844 0)
(0.999962 0.00295457 0)
(1.00033 0.0030989 0)
(1.00061 0.00346439 0)
(1.00063 0.00386146 0)
(1.00052 0.00406381 0)
(1.0003 -0.00032809 0)
(0.999421 0.000256043 0)
(0.999187 0.00182239 0)
(1.00177 -0.000215151 0)
(1.00173 0.000133122 0)
(0.999543 0.0023327 0)
(0.999989 0.00163554 0)
(1.00188 0.000222534 0)
(1.00182 0.000741074 0)
(1.00037 0.00167261 0)
(0.99972 0.00160943 0)
(1.00014 0.00141371 0)
(1.00051 0.00187324 0)
(1.00029 0.0026246 0)
(0.999919 0.00303402 0)
(0.999981 0.00303344 0)
(1.00043 0.00302679 0)
(1.00081 0.00324775 0)
(1.00083 0.00365367 0)
(1.00063 0.00395819 0)
(1.00027 -0.000241642 0)
(0.999504 6.1175e-05 0)
(0.999079 0.00183057 0)
(1.00154 2.579e-05 0)
(1.00183 -0.000139299 0)
(0.999591 0.00209591 0)
(0.999693 0.00191371 0)
(1.00168 0.00036517 0)
(1.00192 0.000566918 0)
(1.00044 0.00167506 0)
(0.999641 0.00186768 0)
(1.00012 0.00154785 0)
(1.00067 0.00176258 0)
(1.0005 0.00248568 0)
(1.00001 0.00305098 0)
(0.999977 0.00312632 0)
(1.00046 0.00302442 0)
(1.00096 0.0030844 0)
(1.00106 0.00341452 0)
(1.0008 0.0037886 0)
(1.00023 -0.000156413 0)
(0.999594 -0.000101193 0)
(0.999007 0.00177934 0)
(1.00129 0.000287226 0)
(1.0019 -0.000336799 0)
(0.999698 0.00178527 0)
(0.999434 0.00213204 0)
(1.00142 0.000593066 0)
(1.00199 0.000432381 0)
(1.00057 0.00157952 0)
(0.999585 0.00206927 0)
(1.00005 0.00174425 0)
(1.00079 0.00171189 0)
(1.00073 0.00230321 0)
(1.00016 0.00298568 0)
(0.999978 0.00319433 0)
(1.00043 0.00307041 0)
(1.00105 0.00299273 0)
(1.00127 0.00319121 0)
(1.00102 0.00356808 0)
(1.00019 -7.88233e-05 0)
(0.999688 -0.000226015 0)
(0.998974 0.00167203 0)
(1.00103 0.00055668 0)
(1.00192 -0.000448308 0)
(0.999854 0.00143111 0)
(0.999232 0.00225806 0)
(1.00112 0.000878021 0)
(1.00203 0.000362112 0)
(1.00075 0.00140854 0)
(0.999582 0.002181 0)
(0.99994 0.00196736 0)
(1.00083 0.00173557 0)
(1.00096 0.00212176 0)
(1.00037 0.00284152 0)
(1.00001 0.00320778 0)
(1.00037 0.00313434 0)
(1.00105 0.00296743 0)
(1.00143 0.00302004 0)
(1.00126 0.00333183 0)
(1.00015 -1.17963e-05 0)
(0.999778 -0.000314238 0)
(0.998981 0.00151522 0)
(1.00076 0.000803908 0)
(1.0019 -0.000464086 0)
(1.00004 0.00107462 0)
(0.999102 0.00228024 0)
(1.0008 0.00118847 0)
(1.002 0.000378626 0)
(1.00096 0.00120862 0)
(0.999645 0.0021927 0)
(0.999822 0.00217383 0)
(1.0008 0.00182731 0)
(1.00115 0.0019836 0)
(1.00061 0.00264108 0)
(1.00011 0.00314907 0)
(1.00031 0.00318227 0)
(1.001 0.00298904 0)
(1.00151 0.00291352 0)
(1.00148 0.003118 0)
(1.00012 4.49274e-05 0)
(0.999863 -0.000366428 0)
(0.999024 0.00132755 0)
(1.00052 0.00100764 0)
(1.00182 -0.000394134 0)
(1.00025 0.000747267 0)
(0.999052 0.00220292 0)
(1.00047 0.0014812 0)
(1.00189 0.000479232 0)
(1.00117 0.0010197 0)
(0.999778 0.00210972 0)
(0.999725 0.00232899 0)
(1.0007 0.00196834 0)
(1.00127 0.00191453 0)
(1.00087 0.00242611 0)
(1.00026 0.00301639 0)
(1.00028 0.00318728 0)
(1.0009 0.00302982 0)
(1.00153 0.00286625 0)
(1.00165 0.00295114 0)
(1.00009 8.98476e-05 0)
(0.999936 -0.000379986 0)
(0.999099 0.00112526 0)
(1.00029 0.0011569 0)
(1.0017 -0.000257909 0)
(1.00045 0.000472578 0)
(0.999081 0.00203799 0)
(1.00017 0.00172164 0)
(1.00173 0.000655512 0)
(1.00135 0.000878067 0)
(0.999972 0.00195403 0)
(0.999675 0.00240779 0)
(1.00057 0.00212392 0)
(1.00131 0.00191442 0)
(1.00111 0.00223826 0)
(1.00048 0.00282702 0)
(1.0003 0.00313004 0)
(1.0008 0.00305875 0)
(1.00147 0.00285995 0)
(1.00176 0.00283713 0)
(1.00006 0.000120138 0)
(0.999997 -0.00035666 0)
(0.999199 0.000924358 0)
(1.0001 0.00124471 0)
(1.00154 -8.45504e-05 0)
(1.00063 0.000266411 0)
(0.99918 0.00181376 0)
(0.999918 0.0018864 0)
(1.00151 0.000879681 0)
(1.00148 0.000803613 0)
(1.00021 0.00175918 0)
(0.999691 0.00240143 0)
(1.00042 0.0022584 0)
(1.00127 0.00196884 0)
(1.0013 0.00210441 0)
(1.00072 0.00261606 0)
(1.00039 0.00300866 0)
(1.00072 0.00305127 0)
(1.00137 0.0028711 0)
(1.00179 0.00277012 0)
(1.00004 0.000139155 0)
(1.00004 -0.000310778 0)
(0.999312 0.000735202 0)
(0.999953 0.0012741 0)
(1.00135 0.000106921 0)
(1.00077 0.00013411 0)
(0.999334 0.00155949 0)
(0.999731 0.00196242 0)
(1.00125 0.00111531 0)
(1.00154 0.000802176 0)
(1.00046 0.00156277 0)
(0.999775 0.00231798 0)
(1.0003 0.00234654 0)
(1.00118 0.00205318 0)
(1.00141 0.00203158 0)
(1.00096 0.00241927 0)
(1.00055 0.00284035 0)
(1.00069 0.0029925 0)
(1.00126 0.00287442 0)
(1.00175 0.00273581 0)
(1.00002 0.000147596 0)
(1.00008 -0.000248967 0)
(0.999434 0.000569553 0)
(0.999845 0.00125329 0)
(1.00115 0.000306902 0)
(1.00087 7.61124e-05 0)
(0.999524 0.00130347 0)
(0.999617 0.00195058 0)
(1.00099 0.00132862 0)
(1.00152 0.000865925 0)
(1.00069 0.00139453 0)
(0.99992 0.00217554 0)
(1.00022 0.00237365 0)
(1.00106 0.00213724 0)
(1.00146 0.00201016 0)
(1.00117 0.00225907 0)
(1.00073 0.00265184 0)
(1.00072 0.00288196 0)
(1.00116 0.00284863 0)
(1.00167 0.00271387 0)
(1.00001 0.000145981 0)
(1.0001 -0.000176193 0)
(0.999554 0.000434618 0)
(0.999779 0.00118484 0)
(1.00095 0.000490344 0)
(1.00091 8.78618e-05 0)
(0.999728 0.00107338 0)
(0.999577 0.00186708 0)
(1.00074 0.00149629 0)
(1.00145 0.000977506 0)
(1.00089 0.00127526 0)
(1.00011 0.00200136 0)
(1.00019 0.00233702 0)
(1.00093 0.00219772 0)
(1.00144 0.00202158 0)
(1.00132 0.00214284 0)
(1.00093 0.00246867 0)
(1.0008 0.00273373 0)
(1.0011 0.00278326 0)
(1.00157 0.0026846 0)
(0.999996 0.000138336 0)
(1.0001 -0.000103872 0)
(0.999666 0.000331934 0)
(0.999751 0.00108484 0)
(1.00075 0.000635434 0)
(1.00091 0.000151872 0)
(0.999927 0.000885319 0)
(0.999603 0.00173235 0)
(1.00053 0.00160302 0)
(1.00133 0.00110952 0)
(1.00103 0.00121097 0)
(1.00031 0.00182474 0)
(1.00023 0.00224494 0)
(1.00081 0.00221988 0)
(1.00137 0.0020446 0)
(1.00142 0.00206669 0)
(1.00112 0.00230784 0)
(1.00092 0.00256822 0)
(1.00109 0.00267992 0)
(1.00148 0.00263371 0)
(0.99999 0.000126714 0)
(1.0001 -3.66488e-05 0)
(0.999766 0.000260127 0)