/*--------------------------------*- C++ -*----------------------------------*\
| =========                 |                                                 |
| \\      /  F ield         | OpenFOAM: The Open Source CFD Toolbox           |
|  \\    /   O peration     | Version:  v2012                                 |
|   \\  /    A nd           | Website:  www.openfoam.com                      |
|    \\/     M anipulation  |                                                 |
\*---------------------------------------------------------------------------*/
FoamFile
{
    version     2.0;
    format      ascii;
    class       volScalarField;
    location    "3.05";
    object      p;
}
// * * * * * * * * * * * * * * * * * * * * * * * * * * * * * * * * * * * * * //

dimensions      [0 2 -2 0 0 0 0];


internalField   nonuniform List<scalar> 
17600
(
-4.15689e-10
-0.0018885
-0.0020394
-0.00302186
-0.00362509
-0.00453164
-0.00537994
-0.00497865
-0.00569577
-0.00583416
-0.00627633
-0.00653017
-0.0068555
-0.00670092
-0.00668681
-0.00622767
-0.00559809
-0.00419312
-0.00232088
0.00123707
1.03137e-07
-0.00189034
-0.00203818
-0.00302509
-0.00362312
-0.00453381
-0.00537855
-0.00498143
-0.00569272
-0.00583724
-0.00627369
-0.00653993
-0.00685182
-0.00671179
-0.00668186
-0.00624648
-0.00558946
-0.00424305
-0.00230865
0.000954326
-8.4503e-07
-0.00189293
-0.00203704
-0.00302975
-0.00361912
-0.00453675
-0.00537596
-0.00498474
-0.0056888
-0.00584225
-0.00626981
-0.00655053
-0.00684637
-0.00672556
-0.00667533
-0.00626994
-0.00557993
-0.00430217
-0.00231071
0.000556426
-3.44813e-06
-0.00189615
-0.00203698
-0.00303497
-0.00361444
-0.00453896
-0.0053725
-0.0049879
-0.0056851
-0.00584809
-0.00626581
-0.00656161
-0.00684138
-0.00674003
-0.00666988
-0.006294
-0.00557376
-0.00436037
-0.00234264
0.000163445
-7.79095e-06
-0.00190037
-0.0020376
-0.0030407
-0.00360917
-0.0045399
-0.00536828
-0.00499131
-0.00568153
-0.00585484
-0.0062616
-0.00657369
-0.00683646
-0.00675563
-0.00666443
-0.00631974
-0.00556976
-0.00442052
-0.00240581
-0.000208376
-1.37354e-05
-0.00190573
-0.00203835
-0.00304679
-0.00360307
-0.00453942
-0.00536356
-0.00499511
-0.00567782
-0.00586248
-0.00625708
-0.0065867
-0.00683127
-0.00677248
-0.0066587
-0.00634749
-0.0055684
-0.00448435
-0.00249865
-0.000556895
-2.09753e-05
-0.00191216
-0.00203892
-0.00305291
-0.00359607
-0.00453757
-0.00535855
-0.00499923
-0.00567381
-0.00587082
-0.00625231
-0.00660043
-0.00682601
-0.00679015
-0.00665345
-0.00637673
-0.00557186
-0.00455176
-0.0026193
-0.000886356
-2.91299e-05
-0.00191951
-0.0020392
-0.00305886
-0.00358827
-0.00453458
-0.00535333
-0.00500358
-0.00566945
-0.00587972
-0.00624741
-0.00661481
-0.00682099
-0.00680845
-0.00664961
-0.00640653
-0.00558276
-0.0046216
-0.00276615
-0.00120299
-3.78739e-05
-0.00192761
-0.00203919
-0.00306455
-0.00357984
-0.00453071
-0.00534796
-0.00500811
-0.00566473
-0.0058891
-0.00624252
-0.00662975
-0.00681651
-0.00682719
-0.006648
-0.00643598
-0.0056033
-0.00469316
-0.00293725
-0.001513
-4.70099e-05
-0.00193632
-0.00203899
-0.00306998
-0.00357095
-0.00452624
-0.00534249
-0.00501276
-0.0056597
-0.00589889
-0.00623776
-0.00664512
-0.00681285
-0.00684599
-0.00664948
-0.00646436
-0.00563504
-0.00476659
-0.00312979
-0.00182178
-5.64581e-05
-0.00194554
-0.00203867
-0.00307517
-0.00356175
-0.00452135
-0.00533694
-0.00501747
-0.00565442
-0.00590899
-0.00623326
-0.00666071
-0.00681038
-0.00686447
-0.00665503
-0.00649127
-0.00567894
-0.00484324
-0.00334003
-0.00213343
-6.62052e-05
-0.00195518
-0.00203832
-0.00308012
-0.00355232
-0.00451612
-0.00533136
-0.00502213
-0.00564898
-0.00591927
-0.0062292
-0.00667621
-0.00680958
-0.00688164
-0.00666558
-0.00651668
-0.00573523
-0.00492564
-0.00356373
-0.00245046
-7.62588e-05
-0.00196517
-0.00203798
-0.00308479
-0.00354277
-0.00451055
-0.00532581
-0.00502662
-0.00564348
-0.00592953
-0.00622584
-0.00669126
-0.00681096
-0.00689721
-0.00668182
-0.00654117
-0.00580326
-0.00501696
-0.00379696
-0.00277383
-8.66247e-05
-0.00197547
-0.00203769
-0.00308914
-0.00353319
-0.0045046
-0.00532038
-0.00503081
-0.00563806
-0.00593957
-0.00622348
-0.0067055
-0.00681505
-0.00691095
-0.00670409
-0.00656616
-0.00588163
-0.00512017
-0.00403685
-0.00310334
-9.73037e-05
-0.00198601
-0.00203751
-0.00309308
-0.00352367
-0.00449817
-0.00531521
-0.00503453
-0.00563292
-0.00594909
-0.00622246
-0.0067186
-0.00682228
-0.00692285
-0.00673228
-0.00659376
-0.00596868
-0.00523738
-0.00428191
-0.00343803
-0.000108296
-0.00199675
-0.00203749
-0.00309654
-0.00351436
-0.00449114
-0.00531045
-0.00503758
-0.00562827
-0.00595782
-0.006223
-0.00673032
-0.00683297
-0.0069334
-0.00676574
-0.00662634
-0.00606329
-0.00536981
-0.00453149
-0.00377657
-0.000119601
-0.00200764
-0.00203768
-0.00309939
-0.00350539
-0.00448335
-0.00530631
-0.00503971
-0.00562438
-0.00596551
-0.00622526
-0.00674056
-0.00684721
-0.00694368
-0.00680341
-0.00666591
-0.00616527
-0.00551761
-0.00478539
-0.00411768
-0.000131225
-0.00201861
-0.00203817
-0.0031015
-0.00349695
-0.00447462
-0.00530304
-0.00504063
-0.00562144
-0.00597198
-0.00622939
-0.00674945
-0.00686455
-0.00695528
-0.00684429
-0.0067137
-0.00627507
-0.00568001
-0.00504352
-0.00446
-0.000143176
-0.00202957
-0.00203904
-0.00310271
-0.00348925
-0.00446472
-0.00530094
-0.00504011
-0.00561957
-0.00597719
-0.00623542
-0.0067572
-0.00688395
-0.00696991
-0.00688825
-0.0067705
-0.0063936
-0.00585612
-0.00530555
-0.00480171
-0.000155475
-0.00204046
-0.00204038
-0.00310283
-0.00348253
-0.0044534
-0.00530025
-0.00503795
-0.00561885
-0.00598122
-0.00624315
-0.00676379
-0.00690404
-0.00698852
-0.00693591
-0.00683673
-0.00652204
-0.00604583
-0.00557135
-0.00514073
-0.000168146
-0.00205114
-0.00204235
-0.00310162
-0.00347707
-0.00444041
-0.00530119
-0.00503358
-0.00561924
-0.00598447
-0.00625191
-0.00677226
-0.00692374
-0.00701124
-0.00698843
-0.00691263
-0.00666142
-0.00624998
-0.00584159
-0.00547527
-0.000181218
-0.00206147
-0.0020451
-0.00309883
-0.00347317
-0.00442549
-0.00530392
-0.00502799
-0.00562042
-0.00598765
-0.00626057
-0.00678325
-0.00694297
-0.00703785
-0.00704731
-0.00699856
-0.00681217
-0.0064694
-0.00611789
-0.00580458
-0.000194745
-0.00207123
-0.00204881
-0.00309418
-0.00347116
-0.00440848
-0.00530851
-0.00502079
-0.00562182
-0.00599169
-0.00626792
-0.00679723
-0.00696231
-0.00706756
-0.00711387
-0.00709527
-0.00697439
-0.00670438
-0.00640239
-0.00612943
-0.000208834
-0.00208016
-0.00205371
-0.00308736
-0.00347133
-0.00438935
-0.00531494
-0.00501223
-0.00562259
-0.00599774
-0.00627278
-0.00681404
-0.00698277
-0.00709925
-0.00718879
-0.00720383
-0.00714859
-0.0069554
-0.00669793
-0.00645262
-0.000223567
-0.00208795
-0.00206003
-0.00307818
-0.00347387
-0.00436812
-0.00532296
-0.00500317
-0.00562133
-0.00600717
-0.0062742
-0.00683343
-0.00700527
-0.00713177
-0.00727186
-0.00732507
-0.00733467
-0.00722301
-0.00701117
-0.00677938
-0.000239055
-0.00209424
-0.00206794
-0.00306643
-0.00347895
-0.00434491
-0.00533199
-0.00499496
-0.00561646
-0.00602053
-0.00627195
-0.00685839
-0.00703143
-0.007164
-0.00736138
-0.007458
-0.00752564
-0.00750593
-0.00735753
-0.00712031
-0.000255564
-0.00209855
-0.00207773
-0.00305188
-0.00348662
-0.00431991
-0.00534125
-0.00498877
-0.005607
-0.00603772
-0.00626771
-0.00687897
-0.00706408
-0.00719643
-0.00745504
-0.00760213
-0.00772036
-0.00778994
-0.00771519
-0.0075114
-0.000273276
-0.0021004
-0.00208954
-0.00303459
-0.00349664
-0.0042935
-0.00534952
-0.00498576
-0.00559249
-0.00605866
-0.00626189
-0.006897
-0.00710512
-0.00723135
-0.00755259
-0.00776587
-0.00792699
-0.00807655
-0.00808615
-0.00791489
-0.000292421
-0.00209936
-0.00210332
-0.00301488
-0.00350833
-0.00426712
-0.00535563
-0.00498686
-0.00557262
-0.0060831
-0.00625626
-0.00691095
-0.00715701
-0.00727667
-0.00765644
-0.00794619
-0.00814832
-0.00836618
-0.00846345
-0.00832591
-0.00031334
-0.00209497
-0.00211889
-0.00299318
-0.00352109
-0.0042433
-0.00535884
-0.00499269
-0.00554752
-0.00611008
-0.00625574
-0.0069224
-0.00722158
-0.00733383
-0.00776192
-0.00813807
-0.00838551
-0.0086581
-0.00883806
-0.00874018
-0.000336265
-0.00208687
-0.00213575
-0.00297016
-0.00353427
-0.00422164
-0.00535879
-0.00500351
-0.00551856
-0.00613894
-0.00626673
-0.00693302
-0.00729625
-0.00740385
-0.00786477
-0.00833537
-0.00863792
-0.00895344
-0.00920575
-0.00915173
-0.000361412
-0.00207486
-0.00215312
-0.00294641
-0.00354721
-0.00420277
-0.00535578
-0.00501962
-0.00548825
-0.00617025
-0.00628945
-0.00694241
-0.00737627
-0.0074889
-0.00796601
-0.0085324
-0.00890316
-0.00925485
-0.00956567
-0.00955564
-0.000388881
-0.00205903
-0.00217002
-0.00292218
-0.00355968
-0.00418698
-0.00535055
-0.005042
-0.00545964
-0.00620391
-0.00632272
-0.00694578
-0.00745714
-0.00759016
-0.00806964
-0.00872508
-0.00917748
-0.00956415
-0.00991756
-0.00994822
-0.000418688
-0.00203975
-0.00218536
-0.00289763
-0.00357167
-0.0041747
-0.00534391
-0.0050737
-0.00543481
-0.00623631
-0.00636645
-0.00694633
-0.00753385
-0.0077066
-0.00817973
-0.00891135
-0.00945638
-0.0098813
-0.0102628
-0.0103271
-0.000450757
-0.00201758
-0.00219819
-0.0028725
-0.00358332
-0.00416687
-0.00533732
-0.00511728
-0.00541487
-0.00626246
-0.00642013
-0.00694786
-0.00760247
-0.00783492
-0.00830011
-0.00909171
-0.00973563
-0.0102054
-0.0106036
-0.0106912
-0.000484734
-0.00199341
-0.00220789
-0.00284599
-0.00359513
-0.00416518
-0.00533207
-0.00517403
-0.00539966
-0.00627927
-0.00648199
-0.0069548
-0.0076616
-0.00797092
-0.00843397
-0.00926867
-0.0100118
-0.0105349
-0.0109421
-0.0110407
-0.000520245
-0.00196809
-0.00221434
-0.00281734
-0.00360778
-0.00417224
-0.005328
-0.00523902
-0.00539046
-0.00628571
-0.00654959
-0.00697157
-0.00771222
-0.00811069
-0.00858301
-0.00944545
-0.0102822
-0.0108663
-0.0112793
-0.0113763
-0.000556838
-0.00194234
-0.00221845
-0.0027863
-0.00362078
-0.00418977
-0.00532438
-0.00531159
-0.00538965
-0.00628235
-0.00661985
-0.0070011
-0.0077569
-0.00825033
-0.00874682
-0.00962508
-0.010544
-0.0111954
-0.0116151
-0.0116995
-0.000593723
-0.00191676
-0.00222193
-0.00275332
-0.00363279
-0.00421811
-0.00532114
-0.0053779
-0.00539966
-0.00627114
-0.00668955
-0.00704454
-0.00779906
-0.00838598
-0.00892259
-0.00980976
-0.0107955
-0.0115177
-0.0119493
-0.0120129
-0.000630105
-0.00189162
-0.00222657
-0.00271936
-0.00364236
-0.00425623
-0.00531903
-0.00544304
-0.00542152
-0.00625433
-0.0067554
-0.00710164
-0.00784267
-0.00851483
-0.00910577
-0.0100002
-0.011037
-0.0118303
-0.0122812
-0.0123197
-0.000665457
-0.00186699
-0.00223392
-0.0026862
-0.00364797
-0.0043025
-0.00531976
-0.00550525
-0.00545503
-0.00623711
-0.00681442
-0.00717044
-0.00789149
-0.00863597
-0.00929131
-0.0101954
-0.0112693
-0.0121308
-0.0126095
-0.0126226
-0.000699414
-0.0018425
-0.00224512
-0.0026566
-0.0036488
-0.00435508
-0.00532495
-0.00556242
-0.00549881
-0.00622321
-0.00686516
-0.00724758
-0.00794796
-0.00875035
-0.00947517
-0.0103939
-0.0114934
-0.012417
-0.0129312
-0.0129229
-0.00073182
-0.00181735
-0.00226065
-0.00263433
-0.00364527
-0.00441157
-0.00533562
-0.00561329
-0.00555054
-0.00621553
-0.00690811
-0.00732924
-0.0080126
-0.00885981
-0.00965509
-0.0105945
-0.0117101
-0.0126865
-0.0132418
-0.0132195
-0.000762729
-0.00179059
-0.00228073
-0.00262619
-0.00363841
-0.00446892
-0.00535241
-0.00566078
-0.00560715
-0.00621564
-0.00694506
-0.0074123
-0.00808445
-0.00896583
-0.00983008
-0.010796
-0.0119201
-0.0129371
-0.0135356
-0.0135093
-0.000792198
-0.0017614
-0.00230585
-0.00263387
-0.00362952
-0.00452371
-0.00537578
-0.00570003
-0.00566496
-0.00622335
-0.00697806
-0.00749475
-0.00816208
-0.00906903
-0.00999923
-0.0109967
-0.0121241
-0.0131683
-0.0138078
-0.0137878
-0.000820448
-0.00172975
-0.00233564
-0.00265947
-0.00362088
-0.00457316
-0.00540583
-0.00573571
-0.00572097
-0.00623745
-0.00700861
-0.0075752
-0.00824374
-0.00916905
-0.0101604
-0.0111942
-0.0123227
-0.0133814
-0.0140557
-0.0140499
-0.000848315
-0.0016964
-0.00236862
-0.00270246
-0.00361541
-0.00461613
-0.00544202
-0.00577007
-0.00577387
-0.00625625
-0.00703745
-0.0076526
-0.00832769
-0.00926502
-0.010311
-0.0113854
-0.0125165
-0.0135789
-0.0142786
-0.0142906
-0.000877497
-0.00166435
-0.00240077
-0.0027599
-0.00361549
-0.00465189
-0.00548374
-0.00580656
-0.00582354
-0.006278
-0.00706482
-0.00772608
-0.00841223
-0.00935596
-0.0104489
-0.0115676
-0.0127053
-0.0137637
-0.0144772
-0.0145057
-0.000908739
-0.00163909
-0.00243099
-0.00282972
-0.00362396
-0.00468009
-0.00552928
-0.00584791
-0.00587031
-0.00630067
-0.00709057
-0.0077947
-0.00849522
-0.00944061
-0.0105721
-0.0117375
-0.0128879
-0.0139379
-0.0146535
-0.014693
-0.000942011
-0.00161452
-0.0024616
-0.00291091
-0.00364361
-0.00470143
-0.00557555
-0.00589558
-0.00591547
-0.00632206
-0.00711414
-0.00785786
-0.00857457
-0.00951733
-0.0106782
-0.0118909
-0.0130615
-0.0141028
-0.0148103
-0.0148524
-0.000979334
-0.00159642
-0.00248896
-0.00300053
-0.00367696
-0.0047178
-0.00561918
-0.00594936
-0.00596155
-0.00634067
-0.0071338
-0.00791526
-0.00864902
-0.00958457
-0.0107639
-0.0120227
-0.013222
-0.0142588
-0.0149513
-0.0149863
-0.00102294
-0.00158621
-0.00251193
-0.00309511
-0.00372579
-0.00473241
-0.00565776
-0.00600724
-0.00601077
-0.00635618
-0.00714618
-0.00796546
-0.00871828
-0.00964196
-0.0108272
-0.0121269
-0.0133627
-0.014404
-0.0150798
-0.015099
-0.00107323
-0.00158531
-0.00252609
-0.00319262
-0.00379065
-0.00474835
-0.0056901
-0.00606727
-0.00606409
-0.00636918
-0.00714768
-0.00800471
-0.00878189
-0.00969073
-0.010868
-0.0121977
-0.0134745
-0.0145328
-0.0151966
-0.0151949
-0.00112958
-0.00159565
-0.00254694
-0.00329122
-0.00387087
-0.00476858
-0.00571595
-0.0061276
-0.00612154
-0.00638006
-0.0071357
-0.00802755
-0.00883696
-0.00973254
-0.0108881
-0.0122316
-0.0135482
-0.0146351
-0.015298
-0.0152767
-0.00119208
-0.00161876
-0.00257132
-0.00338954
-0.00396534
-0.00479636
-0.00573542
-0.00618573
-0.00618303
-0.0063895
-0.00710887
-0.00802829
-0.00887699
-0.00976643
-0.0108905
-0.0122293
-0.0135768
-0.014698
-0.0153749
-0.0153426
-0.00126246
-0.00165585
-0.00260082
-0.0034869
-0.00407284
-0.0048351
-0.00574943
-0.00623819
-0.0062479
-0.0063996
-0.00706716
-0.00800157
-0.00889302
-0.0097867
-0.0108768
-0.0121934
-0.0135571
-0.014713
-0.0154157
-0.0153854
-0.00134242
-0.00170758
-0.00263795
-0.00358318
-0.00419181
-0.00488741
-0.00576019
-0.0062815
-0.00631332
-0.00641265
-0.00701256
-0.00794368
-0.00887608
-0.00978426
-0.0108443
-0.0121262
-0.0134886
-0.0146732
-0.0154079
-0.0153939
-0.00143323
-0.00177503
-0.00268544
-0.0036791
-0.00432012
-0.00495467
-0.00577069
-0.00631387
-0.00637516
-0.00642925
-0.00694869
-0.00785358
-0.00881802
-0.00974807
-0.0107854
-0.0120264
-0.0133715
-0.0145749
-0.0153438
-0.0153565
-0.00153645
-0.00186049
-0.00274523
-0.00377584
-0.0044562
-0.00503808
-0.00578444
-0.00633499
-0.00642902
-0.00644725
-0.00687814
-0.00773253
-0.00871212
-0.00966599
-0.0106887
-0.0118881
-0.0132046
-0.0144152
-0.0152163
-0.0152644
-0.00165349
-0.0019639
-0.00282159
-0.00387572
-0.00459904
-0.00513834
-0.00580514
-0.00634546
-0.00647062
-0.00646257
-0.00680164
-0.00758261
-0.00855389
-0.00952638
-0.0105408
-0.0117013
-0.0129822
-0.0141894
-0.015019
-0.0151088
-0.00178638
-0.0020867
-0.00291638
-0.00398165
-0.00474785
-0.00525593
-0.00583678
-0.00634738
-0.00649696
-0.00647034
-0.00671828
-0.00740486
-0.00834014
-0.00931833
-0.0103265
-0.0114513
-0.0126927
-0.0138871
-0.0147424
-0.0148763
-0.00193735
-0.0022304
-0.00303254
-0.00409677
-0.00490192
-0.00539045
-0.00588367
-0.00634454
-0.00650684
-0.00646654
-0.00662583
-0.00719987
-0.00806877
-0.00903093
-0.0100277
-0.0111177
-0.0123167
-0.0134905
-0.014358
-0.0145379
-0.0021082
-0.00239643
-0.00317354
-0.00422438
-0.0050606
-0.00554014
-0.00595052
-0.00634348
-0.00650182
-0.00644945
-0.00652194
-0.00696819
-0.00773821
-0.0086531
-0.0096225
-0.010673
-0.0118233
-0.0129647
-0.0138399
-0.0140696
-0.00230171
-0.00258597
-0.00334174
-0.00436825
-0.00522407
-0.0057033
-0.00604078
-0.00635289
-0.00648848
-0.00642016
-0.00640676
-0.00671018
-0.00734601
-0.00817182
-0.00908291
-0.0100798
-0.0111736
-0.012274
-0.013153
-0.0134403
-0.0025233
-0.0028011
-0.00353767
-0.00452971
-0.00539368
-0.00587916
-0.00615397
-0.0063807
-0.00647681
-0.00638686
-0.00628783
-0.00642905
-0.00688737
-0.00756976
-0.00837625
-0.00928147
-0.0102965
-0.0113544
-0.0122464
-0.0126109
-0.00278603
-0.0030478
-0.00375629
-0.00470929
-0.00557246
-0.00606459
-0.00628866
-0.00643238
-0.00647647
-0.0063613
-0.00618594
-0.00614258
-0.00636598
-0.00682969
-0.00745624
-0.00820736
-0.00910136
-0.0101006
-0.0110235
-0.0115143
-0.00309352
-0.00334602
-0.00399386
-0.00491059
-0.00576393
-0.00625558
-0.00644143
-0.00651075
-0.00649652
-0.00635076
-0.00612179
-0.00591268
-0.00582576
-0.00593271
-0.00622319
-0.00670106
-0.00737962
-0.00827339
-0.0092659
-0.0100021
-0.00342261
-0.00366067
-0.00429797
-0.00516542
-0.00597319
-0.0064475
-0.00660345
-0.00661647
-0.00654961
-0.0063602
-0.00610281
-0.00582376
-0.00549275
-0.00506206
-0.00461314
-0.00434332
-0.00444713
-0.00498067
-0.00585245
-0.00682373
-0.00377898
-0.00401246
-0.00466683
-0.00547426
-0.00620059
-0.00663489
-0.00676641
-0.00674798
-0.00664949
-0.00640909
-0.00603527
-0.00576209
-0.00565363
-0.00516939
-0.00402378
-0.00275992
-0.00185056
-0.001329
-0.000990254
-0.00080504
-0.00421461
-0.00443172
-0.00505316
-0.00579386
-0.00643297
-0.00681194
-0.00692057
-0.00687351
-0.00677663
-0.00659389
-0.00589538
-0.00458874
-0.00327147
-0.00223512
-0.00143489
-0.000670349
0.000172227
0.00103403
0.00170431
0.00185364
-0.00475788
-0.00493033
-0.00545504
-0.00609865
-0.00664744
-0.00695823
-0.00703521
-0.00692793
-0.0063561
-0.00530545
-0.00416827
-0.00316734
-0.00236101
-0.00163483
-0.000832741
0.000115086
0.00117081
0.00218911
0.00291941
0.0030009
-0.00539558
-0.00552493
-0.00590556
-0.0063617
-0.00675789
-0.00699986
-0.00672627
-0.00599636
-0.00518281
-0.00443774
-0.00374982
-0.00303273
-0.00219151
-0.00122104
-0.000140485
0.00102563
0.0022099
0.00327072
0.00397352
0.00397466
-0.0061239
-0.00621873
-0.00647924
-0.00656347
-0.00644248
-0.00620892
-0.00583949
-0.00536897
-0.00485832
-0.00429103
-0.00360232
-0.00274482
-0.00171899
-0.000575866
0.000641454
0.00189437
0.00311334
0.00416385
0.00481975
0.0047392
-0.00693579
-0.00700747
-0.00670989
-0.00632414
-0.00598034
-0.00569929
-0.00544039
-0.00510834
-0.00465014
-0.00403726
-0.00325017
-0.00229182
-0.00118963
2.08851e-05
0.0012995
0.00259085
0.00381236
0.00482807
0.00541885
0.00525561
-0.00758765
-0.00748485
-0.00695653
-0.00630508
-0.00577428
-0.00541187
-0.00512576
-0.00479183
-0.00431359
-0.00366175
-0.00283589
-0.00184806
-0.000720592
0.000516742
0.00181651
0.00311652
0.00432776
0.00531154
0.0058519
0.0056262
-0.00808557
-0.00788651
-0.00723482
-0.00641148
-0.00568949
-0.00517394
-0.00479916
-0.00442187
-0.00393478
-0.00328635
-0.00246128
-0.00146843
-0.00033075
0.000916615
0.00222469
0.00352675
0.00472828
0.00568784
0.00619065
0.00591826
-0.00850518
-0.00823834
-0.00747649
-0.00651424
-0.00563577
-0.00497868
-0.00450498
-0.00408482
-0.00359435
-0.00295539
-0.00213934
-0.00114903
-8.70685e-06
0.00124386
0.00255593
0.00385688
0.00504885
0.00598883
0.00646281
0.00615516
-0.00884504
-0.0085236
-0.00767737
-0.00660625
-0.00560549
-0.00483375
-0.00427533
-0.00381097
-0.00330829
-0.00267643
-0.00187231
-0.000889828
0.000250832
0.00150597
0.00281855
0.0041159
0.00529874
0.00622325
0.00667591
0.00634284
-0.00909961
-0.00874327
-0.00783364
-0.00668631
-0.00560299
-0.00474908
-0.0041229
-0.00361291
-0.0030849
-0.00243982
-0.00163019
-0.000648229
0.000486114
0.001734
0.00303942
0.00432818
0.00550075
0.00641234
0.00684948
0.00649871
-0.00925608
-0.00888675
-0.00795136
-0.00676792
-0.0056423
-0.00474473
-0.00407597
-0.00352916
-0.00297361
-0.00230834
-0.00147926
-0.000478673
0.000669334
0.00192124
0.00322125
0.00449789
0.005661
0.00656318
0.00699325
0.00663747
0.00523403
0.000587934
-0.00655147
-0.0116723
-0.01271
-0.0114032
-0.00986849
-0.00881307
-0.00820789
-0.00789186
-0.00774532
-0.00769719
-0.00770929
-0.00775931
-0.00782773
-0.00789809
-0.00796287
-0.00802291
-0.00808255
-0.00814502
-0.00820982
-0.00827376
-0.00833567
-0.00839896
-0.00846803
-0.00854345
-0.00862226
-0.00870207
-0.00878282
-0.00886502
-0.00894819
-0.00903135
-0.0091139
-0.00919539
-0.00927507
-0.00935223
-0.00942672
-0.00949917
-0.00957008
-0.00963953
-0.00970687
-0.00977176
-0.00983448
-0.00989557
-0.00995534
-0.0100138
-0.0100706
-0.0101259
-0.01018
-0.0102329
-0.0102846
-0.0103354
-0.0103853
-0.0104347
-0.0104832
-0.010531
-0.0105781
-0.0106243
-0.0106696
-0.0107138
-0.0107572
-0.0107998
-0.0108416
-0.0108824
-0.0109221
-0.0109608
-0.0109991
-0.0110369
-0.0110743
-0.011111
-0.0111474
-0.0111836
-0.0112196
-0.0112552
-0.0112904
-0.0113254
-0.0113606
-0.0113959
-0.0114313
-0.0114665
-0.0115015
-0.0115366
-0.0115719
-0.0116072
-0.0116423
-0.0116771
-0.0117118
-0.0117464
-0.0117807
-0.011815
-0.011849
-0.0118828
-0.0119164
-0.0119497
-0.011983
-0.0120161
-0.0120491
-0.0120817
-0.0121141
-0.0121461
-0.0121781
-0.0122096
-0.0122409
-0.0122716
-0.0123022
-0.0123324
-0.0123625
-0.0123923
-0.012422
-0.0124515
-0.012481
-0.0125103
-0.0125392
-0.0125681
-0.0125966
-0.0126251
-0.0126531
-0.012681
-0.0127083
-0.0127357
-0.0127627
-0.0127897
-0.0128163
-0.0128427
-0.012869
-0.0128949
-0.0129208
-0.012946
-0.0129714
-0.0129961
-0.0130211
-0.0130456
-0.0130705
-0.0130948
-0.0131193
-0.0131435
-0.0131674
-0.0131913
-0.0132146
-0.0132381
-0.0132607
-0.0132838
-0.0133064
-0.0133294
-0.0133516
-0.0133734
-0.0133953
-0.0134164
-0.0134379
-0.0134582
-0.0134796
-0.0134998
-0.0135206
-0.0135403
-0.01356
-0.0135793
-0.0135979
-0.0136172
-0.0136349
-0.0136538
-0.0136709
-0.0136893
-0.013706
-0.0137228
-0.0137395
-0.0137553
-0.0137723
-0.0137868
-0.0138032
-0.0138171
-0.0138321
-0.0138456
-0.0138588
-0.0138725
-0.0138838
-0.0138968
-0.0139063
-0.0139178
-0.0139271
-0.0139361
-0.0139453
-0.0139511
-0.0139601
-0.013964
-0.0139708
-0.0139746
-0.0139772
-0.0139814
-0.0139795
-0.0139826
-0.0139788
-0.0139786
-0.0139736
-0.0139678
-0.0139623
-0.0139498
-0.0139415
-0.0139268
-0.0139085
-0.0139058
0.00451699
0.000403832
-0.00647629
-0.0115344
-0.0126269
-0.0113638
-0.00984375
-0.00879554
-0.00819526
-0.00788234
-0.00773773
-0.00769086
-0.00770383
-0.00775452
-0.00782347
-0.00789425
-0.00795936
-0.00801969
-0.00807955
-0.00814223
-0.00820723
-0.00827135
-0.00833342
-0.00839684
-0.00846603
-0.00854157
-0.0086205
-0.00870042
-0.00878126
-0.00886355
-0.00894681
-0.00903004
-0.00911266
-0.00919422
-0.00927396
-0.00935118
-0.00942572
-0.00949821
-0.00956917
-0.00963866
-0.00970604
-0.00977096
-0.00983372
-0.00989484
-0.00995464
-0.0100131
-0.0100699
-0.0101253
-0.0101794
-0.0102323
-0.010284
-0.0103348
-0.0103848
-0.0104342
-0.0104827
-0.0105305
-0.0105776
-0.0106239
-0.0106692
-0.0107134
-0.0107568
-0.0107994
-0.0108412
-0.010882
-0.0109217
-0.0109604
-0.0109987
-0.0110366
-0.011074
-0.0111107
-0.0111471
-0.0111833
-0.0112193
-0.0112549
-0.0112901
-0.0113252
-0.0113603
-0.0113957
-0.0114311
-0.0114662
-0.0115012
-0.0115364
-0.0115716
-0.011607
-0.0116421
-0.0116769
-0.0117116
-0.0117462
-0.0117806
-0.0118148
-0.0118489
-0.0118827
-0.0119162
-0.0119496
-0.0119828
-0.0120159
-0.0120489
-0.0120815
-0.012114
-0.012146
-0.0121779
-0.0122094
-0.0122407
-0.0122715
-0.0123021
-0.0123323
-0.0123624
-0.0123922
-0.0124218
-0.0124514
-0.0124809
-0.0125102
-0.0125391
-0.012568
-0.0125965
-0.012625
-0.012653
-0.0126809
-0.0127082
-0.0127356
-0.0127626
-0.0127896
-0.0128162
-0.0128426
-0.0128689
-0.0128948
-0.0129207
-0.0129459
-0.0129713
-0.012996
-0.0130211
-0.0130456
-0.0130704
-0.0130948
-0.0131192
-0.0131435
-0.0131674
-0.0131912
-0.0132145
-0.013238
-0.0132606
-0.0132837
-0.0133064
-0.0133293
-0.0133516
-0.0133734
-0.0133952
-0.0134163
-0.0134378
-0.0134582
-0.0134795
-0.0134997
-0.0135206
-0.0135403
-0.01356
-0.0135793
-0.0135979
-0.0136172
-0.0136349
-0.0136538
-0.0136709
-0.0136893
-0.013706
-0.0137227
-0.0137394
-0.0137553
-0.0137722
-0.0137868
-0.0138032
-0.013817
-0.0138321
-0.0138455
-0.0138588
-0.0138725
-0.0138838
-0.0138968
-0.0139063
-0.0139178
-0.0139271
-0.013936
-0.0139453
-0.013951
-0.0139601
-0.013964
-0.0139707
-0.0139746
-0.0139771
-0.0139814
-0.0139795
-0.0139826
-0.0139787
-0.0139785
-0.0139736
-0.0139677
-0.0139622
-0.0139498
-0.0139415
-0.0139268
-0.0139085
-0.0139058
0.00375831
0.000214036
-0.0063104
-0.0112747
-0.0124768
-0.011305
-0.00981238
-0.00877122
-0.00817597
-0.00786755
-0.00772641
-0.00768202
-0.00769673
-0.00774864
-0.00781846
-0.00788989
-0.00795551
-0.00801623
-0.00807641
-0.00813933
-0.00820454
-0.00826886
-0.00833109
-0.00839467
-0.008464
-0.00853967
-0.00861871
-0.00869873
-0.00877968
-0.00886206
-0.00894541
-0.00902872
-0.00911141
-0.00919305
-0.00927285
-0.00935013
-0.00942473
-0.00949727
-0.00956827
-0.0096378
-0.00970522
-0.00977018
-0.00983297
-0.00989412
-0.00995395
-0.0100124
-0.0100693
-0.0101247
-0.0101788
-0.0102317
-0.0102835
-0.0103343
-0.0103843
-0.0104337
-0.0104823
-0.0105301
-0.0105772
-0.0106235
-0.0106688
-0.010713
-0.0107564
-0.010799
-0.0108409
-0.0108817
-0.0109214
-0.0109601
-0.0109984
-0.0110363
-0.0110737
-0.0111104
-0.0111468
-0.011183
-0.011219
-0.0112546
-0.0112899
-0.0113249
-0.0113601
-0.0113954
-0.0114308
-0.011466
-0.011501
-0.0115361
-0.0115714
-0.0116068
-0.0116419
-0.0116767
-0.0117114
-0.011746
-0.0117804
-0.0118147
-0.0118487
-0.0118825
-0.011916
-0.0119494
-0.0119827
-0.0120158
-0.0120488
-0.0120814
-0.0121138
-0.0121459
-0.0121778
-0.0122093
-0.0122406
-0.0122714
-0.012302
-0.0123322
-0.0123623
-0.012392
-0.0124217
-0.0124513
-0.0124808
-0.0125101
-0.012539
-0.0125679
-0.0125964
-0.0126249
-0.0126529
-0.0126808
-0.0127081
-0.0127355
-0.0127625
-0.0127895
-0.0128161
-0.0128425
-0.0128688
-0.0128947
-0.0129206
-0.0129458
-0.0129712
-0.0129959
-0.013021
-0.0130455
-0.0130703
-0.0130947
-0.0131192
-0.0131434
-0.0131673
-0.0131912
-0.0132144
-0.0132379
-0.0132606
-0.0132836
-0.0133063
-0.0133293
-0.0133515
-0.0133733
-0.0133951
-0.0134163
-0.0134378
-0.0134581
-0.0134795
-0.0134997
-0.0135205
-0.0135402
-0.01356
-0.0135792
-0.0135978
-0.0136171
-0.0136349
-0.0136537
-0.0136708
-0.0136892
-0.0137059
-0.0137227
-0.0137394
-0.0137552
-0.0137722
-0.0137867
-0.0138032
-0.013817
-0.0138321
-0.0138455
-0.0138587
-0.0138724
-0.0138838
-0.0138968
-0.0139062
-0.0139178
-0.0139271
-0.013936
-0.0139453
-0.013951
-0.0139601
-0.0139639
-0.0139707
-0.0139746
-0.0139771
-0.0139814
-0.0139795
-0.0139826
-0.0139787
-0.0139785
-0.0139736
-0.0139677
-0.0139622
-0.0139498
-0.0139415
-0.0139268
-0.0139084
-0.0139057
0.00304012
4.514e-05
-0.00607693
-0.0109314
-0.012268
-0.0112217
-0.00976805
-0.00873485
-0.00814586
-0.00784436
-0.00770902
-0.00766887
-0.00768653
-0.00774045
-0.00781166
-0.0078841
-0.00795054
-0.00801194
-0.00807263
-0.00813592
-0.0082014
-0.00826596
-0.00832842
-0.00839221
-0.00846172
-0.00853754
-0.0086167
-0.00869684
-0.0087779
-0.0088604
-0.00894386
-0.00902727
-0.00911005
-0.00919176
-0.00927163
-0.00934899
-0.00942365
-0.00949625
-0.00956731
-0.00963689
-0.00970435
-0.00976935
-0.00983218
-0.00989337
-0.00995323
-0.0100118
-0.0100686
-0.0101241
-0.0101782
-0.0102312
-0.0102829
-0.0103338
-0.0103838
-0.0104332
-0.0104818
-0.0105296
-0.0105767
-0.010623
-0.0106683
-0.0107126
-0.010756
-0.0107986
-0.0108405
-0.0108813
-0.010921
-0.0109598
-0.0109981
-0.0110359
-0.0110733
-0.0111101
-0.0111465
-0.0111827
-0.0112187
-0.0112543
-0.0112896
-0.0113246
-0.0113598
-0.0113952
-0.0114306
-0.0114658
-0.0115008
-0.0115359
-0.0115712
-0.0116066
-0.0116417
-0.0116765
-0.0117112
-0.0117458
-0.0117802
-0.0118145
-0.0118485
-0.0118823
-0.0119159
-0.0119492
-0.0119825
-0.0120156
-0.0120486
-0.0120813
-0.0121137
-0.0121457
-0.0121777
-0.0122092
-0.0122405
-0.0122712
-0.0123018
-0.0123321
-0.0123622
-0.0123919
-0.0124216
-0.0124512
-0.0124806
-0.01251
-0.0125389
-0.0125678
-0.0125963
-0.0126248
-0.0126528
-0.0126807
-0.012708
-0.0127354
-0.0127625
-0.0127894
-0.012816
-0.0128424
-0.0128687
-0.0128947
-0.0129206
-0.0129458
-0.0129712
-0.0129958
-0.0130209
-0.0130454
-0.0130703
-0.0130946
-0.0131191
-0.0131433
-0.0131672
-0.0131911
-0.0132144
-0.0132379
-0.0132605
-0.0132836
-0.0133063
-0.0133292
-0.0133514
-0.0133733
-0.0133951
-0.0134162
-0.0134377
-0.013458
-0.0134794
-0.0134996
-0.0135205
-0.0135402
-0.0135599
-0.0135792
-0.0135978
-0.0136171
-0.0136348
-0.0136537
-0.0136708
-0.0136892
-0.0137059
-0.0137226
-0.0137393
-0.0137552
-0.0137722
-0.0137867
-0.0138031
-0.013817
-0.013832
-0.0138455
-0.0138587
-0.0138724
-0.0138837
-0.0138967
-0.0139062
-0.0139177
-0.013927
-0.013936
-0.0139452
-0.013951
-0.0139601
-0.0139639
-0.0139707
-0.0139745
-0.0139771
-0.0139814
-0.0139794
-0.0139826
-0.0139787
-0.0139785
-0.0139736
-0.0139677
-0.0139622
-0.0139498
-0.0139414
-0.0139268
-0.0139084
-0.0139057
0.00235511
-0.000131086
-0.00582417
-0.0105578
-0.0120332
-0.0111268
-0.00971711
-0.00868952
-0.0081056
-0.00781212
-0.00768435
-0.00765003
-0.00767188
-0.0077287
-0.00780193
-0.00787588
-0.00794358
-0.00800607
-0.0080676
-0.00813145
-0.00819731
-0.00826217
-0.00832497
-0.00838908
-0.00845886
-0.00853487
-0.00861418
-0.00869445
-0.00877564
-0.00885829
-0.0089419
-0.00902544
-0.00910833
-0.00919014
-0.00927011
-0.00934756
-0.00942232
-0.00949502
-0.00956615
-0.0096358
-0.0097033
-0.00976835
-0.00983123
-0.00989247
-0.00995237
-0.0100109
-0.0100679
-0.0101233
-0.0101775
-0.0102305
-0.0102823
-0.0103331
-0.0103832
-0.0104326
-0.0104812
-0.0105291
-0.0105762
-0.0106225
-0.0106679
-0.0107122
-0.0107556
-0.0107982
-0.0108401
-0.0108809
-0.0109206
-0.0109594
-0.0109977
-0.0110356
-0.011073
-0.0111098
-0.0111462
-0.0111824
-0.0112184
-0.0112541
-0.0112893
-0.0113244
-0.0113596
-0.0113949
-0.0114303
-0.0114655
-0.0115006
-0.0115357
-0.011571
-0.0116064
-0.0116415
-0.0116763
-0.011711
-0.0117456
-0.01178
-0.0118143
-0.0118483
-0.0118822
-0.0119157
-0.0119491
-0.0119823
-0.0120155
-0.0120485
-0.0120811
-0.0121135
-0.0121456
-0.0121775
-0.012209
-0.0122404
-0.0122711
-0.0123017
-0.0123319
-0.012362
-0.0123918
-0.0124215
-0.0124511
-0.0124805
-0.0125098
-0.0125388
-0.0125677
-0.0125962
-0.0126247
-0.0126527
-0.0126806
-0.0127079
-0.0127353
-0.0127624
-0.0127893
-0.0128159
-0.0128423