/*--------------------------------*- C++ -*----------------------------------*\
| =========                 |                                                 |
| \\      /  F ield         | OpenFOAM: The Open Source CFD Toolbox           |
|  \\    /   O peration     | Version:  v2012                                 |
|   \\  /    A nd           | Website:  www.openfoam.com                      |
|    \\/     M anipulation  |                                                 |
\*---------------------------------------------------------------------------*/
FoamFile
{
    version     2.0;
    format      ascii;
    class       surfaceScalarField;
    location    "3.05";
    object      phi;
}
// * * * * * * * * * * * * * * * * * * * * * * * * * * * * * * * * * * * * * //

dimensions      [0 3 -1 0 0 0 0];
oriented        oriented;


internalField   nonuniform List<scalar> 
34900
(
1.17077e-06
3.10633e-07
1.15793e-06
-5.3358e-07
1.16988e-06
5.70529e-07
1.14747e-06
-4.76373e-07
1.16275e-06
2.93332e-07
1.14657e-06
-6.736e-08
1.15482e-06
-5.74184e-08
1.14613e-06
1.68983e-08
1.15505e-06
-1.85117e-08
1.14683e-06
-2.86156e-08
1.15625e-06
3.52734e-08
1.14801e-06
4.23697e-09
1.15744e-06
6.33566e-08
1.14774e-06
1.65317e-08
1.15684e-06
7.77968e-08
1.14527e-06
2.50156e-08
1.15346e-06
8.28463e-08
1.14033e-06
2.56713e-08
1.14317e-06
9.30968e-08
3.25838e-08
1.10723e-06
1.22352e-06
3.1137e-07
1.21112e-06
-5.21175e-07
1.21974e-06
5.61907e-07
1.19907e-06
-4.55704e-07
1.21129e-06
2.81111e-07
1.20038e-06
-5.64481e-08
1.20604e-06
-6.30761e-08
1.20217e-06
2.07699e-08
1.20784e-06
-2.41822e-08
1.20434e-06
-2.5118e-08
1.20868e-06
3.09358e-08
1.20758e-06
5.33539e-09
1.2088e-06
6.21318e-08
1.20988e-06
1.54578e-08
1.20635e-06
8.13212e-08
1.21099e-06
2.03782e-08
1.19993e-06
9.39099e-08
1.20968e-06
1.59195e-08
1.18532e-06
1.17457e-07
2.73055e-08
1.1906e-06
1.27866e-06
3.15493e-07
1.26653e-06
-5.09045e-07
1.27192e-06
5.56516e-07
1.2546e-06
-4.38386e-07
1.26158e-06
2.74138e-07
1.2587e-06
-5.35669e-08
1.25904e-06
-6.34209e-08
1.26226e-06
1.75495e-08
1.26227e-06
-2.41946e-08
1.26591e-06
-2.87565e-08
1.26339e-06
3.34565e-08
1.26991e-06
-1.18104e-09
1.26423e-06
6.781e-08
1.27205e-06
7.64151e-09
1.26363e-06
8.97367e-08
1.27152e-06
1.2485e-08
1.26138e-06
1.04054e-07
1.26619e-06
1.11082e-08
1.25499e-06
1.28663e-07
3.99703e-08
1.24232e-06
1.33723e-06
3.22369e-07
1.32617e-06
-4.97992e-07
1.32876e-06
5.5393e-07
1.31636e-06
-4.25988e-07
1.31734e-06
2.73158e-07
1.32271e-06
-5.89313e-08
1.31763e-06
-5.83447e-08
1.32559e-06
9.58588e-09
1.32194e-06
-2.05445e-08
1.32898e-06
-3.5795e-08
1.32403e-06
3.84065e-08
1.33202e-06
-9.17125e-09
1.32666e-06
7.31698e-08
1.33312e-06
1.18108e-09
1.32843e-06
9.44275e-08
1.3321e-06
8.81278e-09
1.32852e-06
1.07638e-07
1.32708e-06
1.25478e-08
1.32334e-06
1.32403e-07
5.64967e-08
1.30681e-06
1.40019e-06
3.30529e-07
1.39062e-06
-4.88423e-07
1.39164e-06
5.52914e-07
1.38403e-06
-4.18373e-07
1.38096e-06
2.76229e-07
1.39141e-06
-6.93861e-08
1.38377e-06
-5.07097e-08
1.3924e-06
9.57274e-10
1.38855e-06
-1.66878e-08
1.39482e-06
-4.2066e-08
1.39129e-06
4.19322e-08
1.39707e-06
-1.49536e-08
1.39472e-06
7.55277e-08
1.39821e-06
-2.31529e-09
1.39702e-06
9.56203e-08
1.39801e-06
7.82354e-09
1.39725e-06
1.08397e-07
1.3937e-06
1.60981e-08
1.39199e-06
1.34109e-07
7.28864e-08
1.3756e-06
1.46808e-06
3.38125e-07
1.4599e-06
-4.80239e-07
1.46078e-06
5.5203e-07
1.45648e-06
-4.14074e-07
1.45244e-06
2.80266e-07
1.4639e-06
-8.0846e-08
1.45681e-06
-4.36177e-08
1.46354e-06
-5.76691e-09
1.4611e-06
-1.42557e-08
1.46516e-06
-4.61182e-08
1.46359e-06
4.35028e-08
1.46708e-06
-1.84453e-08
1.46663e-06
7.59734e-08
1.46841e-06
-4.09776e-09
1.46864e-06
9.53962e-08
1.46854e-06
7.91825e-09
1.46884e-06
1.081e-07
1.46408e-06
2.08627e-08
1.46381e-06
1.34372e-07
8.92106e-08
1.44749e-06
1.54073e-06
3.43609e-07
1.53357e-06
-4.73081e-07
1.53534e-06
5.50263e-07
1.53261e-06
-4.1134e-07
1.52992e-06
2.82949e-07
1.53964e-06
-9.05647e-08
1.53447e-06
-3.84414e-08
1.53893e-06
-1.02301e-08
1.53757e-06
-1.28957e-08
1.53984e-06
-4.83904e-08
1.53923e-06
4.41098e-08
1.54134e-06
-2.05502e-08
1.54155e-06
7.57605e-08
1.54245e-06
-4.99608e-09
1.54326e-06
9.4584e-08
1.54235e-06
8.82706e-09
1.54351e-06
1.06943e-07
1.53746e-06
2.69123e-08
1.53852e-06
1.33315e-07
1.0517e-07
1.52256e-06
1.61745e-06
3.4629e-07
1.61099e-06
-4.66622e-07
1.61399e-06
5.47261e-07
1.61156e-06
-4.08906e-07
1.61106e-06
2.83452e-07
1.61815e-06
-9.76583e-08
1.61472e-06
-3.50168e-08
1.61764e-06
-1.31426e-08
1.61655e-06
-1.18138e-08
1.61777e-06
-4.96085e-08
1.61738e-06
4.45065e-08
1.61864e-06
-2.18117e-08
1.61904e-06
7.53591e-08
1.61925e-06
-5.20221e-09
1.62053e-06
9.32966e-08
1.61872e-06
1.06418e-08
1.62074e-06
1.04917e-07
1.61345e-06
3.42088e-08
1.61548e-06
1.31278e-07
1.2023e-07
1.60042e-06
1.69747e-06
3.46393e-07
1.69152e-06
-4.60672e-07
1.69567e-06
5.43109e-07
1.6929e-06
-4.0613e-07
1.69437e-06
2.81979e-07
1.6991e-06
-1.02394e-07
1.69679e-06
-3.27055e-08
1.69886e-06
-1.52056e-08
1.6977e-06
-1.06603e-08
1.69829e-06
-5.01986e-08
1.6979e-06
4.49015e-08
1.69851e-06
-2.24237e-08
1.69907e-06
7.47996e-08
1.69856e-06
-4.69618e-09
1.70038e-06
9.1481e-08
1.69757e-06
1.3447e-08
1.70042e-06
1.02071e-07
1.69205e-06
4.25782e-08
1.69464e-06
1.28689e-07
1.33899e-07
1.68097e-06
1.78046e-06
3.44658e-07
1.77489e-06
-4.55109e-07
1.78e-06
5.37997e-07
1.77663e-06
-4.02753e-07
1.77958e-06
2.79024e-07
1.78254e-06
-1.05351e-07
1.78088e-06
-3.10468e-08
1.78246e-06
-1.67872e-08
1.78131e-06
-9.5088e-09
1.78147e-06
-5.03571e-08
1.78118e-06
4.51946e-08
1.78121e-06
-2.24599e-08
1.78206e-06
7.39514e-08
1.7808e-06
-3.43438e-09
1.78322e-06
8.90608e-08
1.7794e-06
1.72666e-08
1.78293e-06
9.85379e-08
1.77377e-06
5.17373e-08
1.77642e-06
1.2604e-07
1.4578e-07
1.76454e-06
1.86656e-06
3.41851e-07
1.86124e-06
-4.49795e-07
1.8672e-06
5.32044e-07
1.86313e-06
-3.98683e-07
1.86719e-06
2.74962e-07
1.86882e-06
-1.0698e-07
1.86763e-06
-2.98604e-08
1.86885e-06
-1.80039e-08
1.86792e-06
-8.58622e-09
1.86774e-06
-5.01772e-08
1.86776e-06
4.5176e-08
1.86727e-06
-2.19666e-08
1.86859e-06
7.2631e-08
1.86656e-06
-1.40013e-09
1.86964e-06
8.59739e-08
1.86487e-06
2.20371e-08
1.86887e-06
9.45407e-08
1.8593e-06
6.13061e-08
1.8615e-06
1.23845e-07
1.55588e-07
1.85169e-06
1.9562e-06
3.38489e-07
1.95098e-06
-4.4457e-07
1.95773e-06
5.25294e-07
1.95292e-06
-3.93879e-07
1.95791e-06
2.69978e-07
1.95845e-06
-1.07524e-07
1.95773e-06
-2.91376e-08
1.95857e-06
-1.88441e-08
1.95808e-06
-8.10339e-09
1.95759e-06
-4.96861e-08
1.95814e-06
4.46324e-08
1.95714e-06
-2.09696e-08
1.95911e-06
7.06599e-08
1.95633e-06
1.3832e-09
1.9601e-06
8.22061e-08
1.95454e-06
2.75901e-08
1.9587e-06
9.03845e-08
1.94916e-06
7.0845e-08
1.95046e-06
1.22541e-07
1.63203e-07
1.94285e-06
2.04986e-06
3.3482e-07
2.04456e-06
-4.39272e-07
2.0521e-06
5.17756e-07
2.04654e-06
-3.88321e-07
2.0524e-06
2.64123e-07
2.05195e-06
-1.07077e-07
2.05175e-06
-2.89428e-08
2.05214e-06
-1.92346e-08
2.05225e-06
-8.2092e-09
2.05141e-06
-4.88475e-08
2.05265e-06
4.3397e-08
2.05114e-06
-1.94661e-08
2.05389e-06
6.79105e-08
2.05043e-06
4.85009e-09
2.05481e-06
7.78239e-08
2.04874e-06
3.36585e-08
2.0527e-06
8.64277e-08
2.04363e-06
7.99131e-08
2.04376e-06
1.22409e-07
1.68688e-07
2.03827e-06
2.1479e-06
3.30919e-07
2.14239e-06
-4.33764e-07
2.15072e-06
5.09429e-07
2.1444e-06
-3.81995e-07
2.15113e-06
2.57385e-07
2.14972e-06
-1.05666e-07
2.15015e-06
-2.93679e-08
2.14999e-06
-1.90736e-08
2.15078e-06
-9.00403e-09
2.14951e-06
-4.75772e-08
2.15154e-06
4.13663e-08
2.14951e-06
-1.74346e-08
2.15308e-06
6.4339e-08
2.14905e-06
8.8835e-09
2.15388e-06
7.29951e-08
2.14763e-06
3.99054e-08
2.15102e-06
8.30394e-08
2.1428e-06
8.81327e-08
2.14166e-06
1.23546e-07
1.72283e-07
2.13807e-06
2.25063e-06
3.26782e-07
2.24479e-06
-4.27933e-07
2.25392e-06
5.00302e-07
2.24681e-06
-3.74882e-07
2.25447e-06
2.49729e-07
2.25209e-06
-1.03293e-07
2.25324e-06
-3.05182e-08
2.25242e-06
-1.82509e-08
2.25398e-06
-1.05627e-08
2.25217e-06
-4.57731e-08
2.25504e-06
3.84981e-08
2.25247e-06
-1.48655e-08
2.25681e-06
6.0002e-08
2.25239e-06
1.33009e-08
2.2574e-06
6.79836e-08
2.25134e-06
4.59733e-08
2.25383e-06
8.05476e-08
2.24672e-06
9.5238e-08
2.24439e-06
1.25879e-07
1.74354e-07
2.24232e-06
2.35827e-06
3.22383e-07
2.35203e-06
-4.21688e-07
2.36198e-06
4.90353e-07
2.35405e-06
-3.66952e-07
2.36267e-06
2.41107e-07
2.35932e-06
-9.99412e-08
2.3613e-06
-3.25049e-08
2.35972e-06
-1.66635e-08
2.3621e-06
-1.29446e-08
2.35968e-06
-4.33515e-08
2.36337e-06
3.48095e-08
2.3603e-06
-1.17993e-08
2.36524e-06
5.50584e-08
2.36069e-06
1.78496e-08
2.36556e-06
6.31163e-08
2.35999e-06
5.15408e-08
2.36137e-06
7.91766e-08
2.35548e-06
1.01126e-07
2.35218e-06
1.29181e-07
1.75338e-07
2.35119e-06
2.47108e-06
3.17693e-07
2.46435e-06
-4.14951e-07
2.47515e-06
4.7955e-07
2.46636e-06
-3.58158e-07
2.47601e-06
2.3146e-07
2.47164e-06
-9.55806e-08
2.47458e-06
-3.5437e-08
2.47214e-06
-1.4227e-08
2.47538e-06
-1.61889e-08
2.47231e-06
-4.02771e-08
2.47674e-06
3.03833e-08
2.4733e-06
-8.36143e-09
2.4786e-06
4.97612e-08
2.47423e-06
2.22187e-08
2.47861e-06
5.8732e-08
2.47378e-06
5.63712e-08
2.47396e-06
7.90007e-08
2.46921e-06
1.05876e-07
2.46528e-06
1.33105e-07
1.75682e-07
2.46494e-06
2.5893e-06
3.12689e-07
2.582e-06
-4.07656e-07
2.59371e-06
4.67841e-07
2.584e-06
-3.48441e-07
2.59474e-06
2.20716e-07
2.58932e-06
-9.01653e-08
2.5933e-06
-3.94103e-08
2.58996e-06
-1.08875e-08
2.59407e-06
-2.0298e-08
2.59038e-06
-3.65871e-08
2.59538e-06
2.53766e-08
2.5918e-06
-4.77364e-09
2.59713e-06
4.44299e-08
2.59326e-06
2.60836e-08
2.59688e-06
5.51129e-08
2.5929e-06
6.03554e-08
2.59197e-06
7.99262e-08
2.58813e-06
1.09718e-07
2.58398e-06
1.37258e-07
1.75794e-07
2.58387e-06
2.71317e-06
3.07346e-07
2.70525e-06
-3.99738e-07
2.71793e-06
4.55163e-07
2.70722e-06
-3.37733e-07
2.71914e-06
2.08797e-07
2.71262e-06
-8.3644e-08
2.71771e-06
-4.44958e-08
2.71345e-06
-6.63334e-09
2.71837e-06
-2.52184e-08
2.71419e-06
-3.2409e-08
2.71954e-06
2.00315e-08
2.71611e-06
-1.34691e-09
2.72113e-06
3.94079e-08
2.71805e-06
2.9164e-08
2.72074e-06
5.24254e-08
2.71756e-06
6.35346e-08
2.71575e-06
8.17383e-08
2.71254e-06
1.12928e-07
2.70851e-06
1.41285e-07
1.75975e-07
2.70833e-06
2.84297e-06
3.01643e-07
2.83436e-06
-3.91128e-07
2.84809e-06
4.41436e-07
2.83631e-06
-3.25955e-07
2.84949e-06
1.9562e-07
2.84182e-06
-7.59724e-08
2.84805e-06
-5.07265e-08
2.84293e-06
-1.51126e-09
2.84853e-06
-3.08195e-08
2.84409e-06
-2.79726e-08
2.84945e-06
1.46729e-08
2.84655e-06
1.55083e-09
2.85095e-06
3.50074e-08
2.84883e-06
3.1288e-08
2.85058e-06
5.06694e-08
2.84802e-06
6.60984e-08
2.84558e-06
8.41752e-08
2.84277e-06
1.15737e-07
2.83912e-06
1.4494e-07
1.76386e-07
2.83871e-06
2.97898e-06
2.9556e-07
2.9696e-06
-3.81752e-07
2.98447e-06
4.26565e-07
2.97155e-06
-3.13032e-07
2.98606e-06
1.81113e-07
2.97722e-06
-6.71301e-08
2.98457e-06
-5.80803e-08
2.97871e-06
4.35315e-09
2.98476e-06
-3.68758e-08
2.9804e-06
-2.36102e-08
2.98538e-06
9.6879e-09
2.98339e-06
3.54791e-09
2.98695e-06
3.14492e-08
2.98579e-06
3.24411e-08
2.98681e-06
4.96546e-08
2.98456e-06
6.83436e-08
2.98172e-06
8.70123e-08
2.97916e-06
1.18301e-07
2.97601e-06
1.48087e-07
1.77056e-07
2.97534e-06
3.12149e-06
2.89074e-07
3.11126e-06
-3.71521e-07
3.12739e-06
4.10441e-07
3.11325e-06
-2.98892e-07
3.12913e-06
1.65224e-07
3.11914e-06
-5.71392e-08
3.12753e-06
-6.64631e-08
3.12114e-06
1.07392e-08
3.12732e-06
-4.30532e-08
3.12346e-06
-1.97522e-08
3.12765e-06
5.49875e-09
3.12687e-06
4.32354e-09
3.1295e-06
2.88184e-08
3.12918e-06
3.27607e-08
3.12979e-06
4.90487e-08
3.12757e-06
7.05684e-08
3.12444e-06
9.01409e-08
3.12193e-06
1.20804e-07
3.11945e-06
1.50574e-07
1.77948e-07
3.11855e-06
3.27082e-06
2.82165e-07
3.25964e-06
-3.60342e-07
3.27713e-06
3.92949e-07
3.26172e-06
-2.83481e-07
3.279e-06
1.47939e-07
3.26795e-06
-4.60874e-08
3.27718e-06
-7.56858e-08
3.2706e-06
1.73118e-08
3.27646e-06
-4.89082e-08
3.27361e-06
-1.69046e-08
3.27658e-06
2.53307e-09
3.27726e-06
3.64205e-09
3.27901e-06
2.70688e-08
3.27932e-06
3.24512e-08
3.27988e-06
4.84821e-08
3.2776e-06
7.28506e-08
3.27404e-06
9.37006e-08
3.2711e-06
1.23742e-07
3.26977e-06
1.51911e-07
1.79233e-07
3.26848e-06
3.42728e-06
2.74816e-07
3.41505e-06
-3.48116e-07
3.43402e-06
3.73983e-07
3.41733e-06
-2.66786e-07
3.43595e-06
1.29311e-07
3.42402e-06
-3.41558e-08
3.43378e-06
-8.54405e-08
3.42748e-06
2.36052e-08
3.43246e-06
-5.38878e-08
3.43118e-06
-1.56206e-08
3.43255e-06
1.166e-09
3.43478e-06
1.40805e-09
3.43581e-06
2.60412e-08
3.43656e-06
3.16961e-08
3.43742e-06
4.76208e-08
3.43583e-06
7.44436e-08
3.43139e-06
9.81404e-08
3.42647e-06
1.28661e-07
3.42596e-06
1.52423e-07
1.80271e-07
3.42492e-06
3.59122e-06
2.6701e-07
3.57785e-06
-3.34748e-07
3.59838e-06
3.53458e-07
3.58043e-06
-2.48844e-07
3.60028e-06
1.09465e-07
3.58775e-06
-2.16248e-08
3.59763e-06
-9.53246e-08
3.59213e-06
2.91068e-08
3.59575e-06
-5.75022e-08
3.59634e-06
-1.62132e-08
3.59613e-06
1.37866e-09
3.59956e-06
-2.0232e-09
3.60041e-06
2.51878e-08
3.60121e-06
3.08909e-08
3.60291e-06
4.59239e-08
3.60423e-06
7.3122e-08
3.60489e-06
9.74838e-08
3.60144e-06
1.32111e-07
3.58547e-06
1.68393e-07
1.77055e-07
3.58869e-06
3.76298e-06
2.58739e-07
3.74839e-06
-3.20163e-07
3.77052e-06
3.31331e-07
3.75145e-06
-2.29773e-07
3.77228e-06
8.86293e-08
3.75954e-06
-8.88132e-09
3.76908e-06
-1.04863e-07
3.76488e-06
3.33025e-08
3.76676e-06
-5.938e-08
3.76922e-06
-1.86745e-08
3.76795e-06
2.64386e-09
3.77167e-06
-5.74136e-09
3.77342e-06
2.34417e-08
3.77372e-06
3.05939e-08
3.77722e-06
4.24238e-08
3.78165e-06
6.86839e-08
3.78629e-06
9.2843e-08
3.79587e-06
1.22537e-07
3.80985e-06
1.54411e-07
2.005e-07
3.78641e-06
3.94292e-06
2.50005e-07
3.92709e-06
-3.04326e-07
3.95076e-06
3.07658e-07
3.9308e-06
-2.09816e-07
3.95225e-06
6.71805e-08
3.93986e-06
3.51389e-09
3.94843e-06
-1.13432e-07
3.94613e-06
3.55956e-08
3.94589e-06
-5.91377e-08
3.95022e-06
-2.3002e-08
3.94824e-06
4.62281e-09
3.9518e-06
-9.29829e-09
3.95482e-06
2.04211e-08
3.95522e-06
3.01892e-08
3.95652e-06
4.11287e-08
3.95e-06
7.52031e-08
3.94228e-06
1.00564e-07
3.93667e-06
1.28147e-07
3.92882e-06
1.62256e-07
1.92285e-07
3.93704e-06
4.13144e-06
2.4082e-07
4.11437e-06
-2.87261e-07
4.13943e-06
2.826e-07
4.11896e-06
-1.89344e-07
4.14053e-06
4.56093e-08
4.12913e-06
1.49135e-08
4.13611e-06
-1.20416e-07
4.13619e-06
3.55175e-08
4.13366e-06
-5.66077e-08
4.13962e-06
-2.89564e-08
4.13729e-06
6.94902e-09
4.14035e-06
-1.23614e-08
4.14261e-06
1.81643e-08
4.13736e-06
3.54424e-08
4.13164e-06
4.68443e-08
4.12973e-06
7.71082e-08
4.12462e-06
1.05676e-07
4.12032e-06
1.32447e-07
4.11869e-06
1.63885e-07
1.8789e-07
4.12309e-06
4.32891e-06
2.31211e-07
4.31071e-06
-2.69057e-07
4.33686e-06
2.56446e-07
4.31636e-06
-1.6884e-07
4.33752e-06
2.44491e-08
4.32772e-06
2.4715e-08
4.3327e-06
-1.254e-07
4.33524e-06
3.29821e-08
4.33075e-06
-5.21248e-08
4.3375e-06
-3.57032e-08
4.33509e-06
9.36052e-09
4.33425e-06
-1.15214e-08
4.33319e-06
1.92218e-08
4.32724e-06
4.13928e-08
4.32331e-06
5.0771e-08
4.32129e-06
7.91267e-08
4.31759e-06
1.09375e-07
4.31462e-06
1.35425e-07
4.31554e-06
1.62966e-07
1.84466e-07
4.31896e-06
4.53576e-06
2.21223e-07
4.51659e-06
-2.49888e-07
4.54339e-06
2.29649e-07
4.52348e-06
-1.48928e-07
4.54364e-06
4.28085e-09
4.536e-06
3.23622e-08
4.53878e-06
-1.28178e-07
4.54351e-06
2.82452e-08
4.53761e-06
-4.62275e-08
4.54351e-06
-4.15966e-08
4.5396e-06
1.32701e-08
4.5346e-06
-6.52684e-09
4.5345e-06
1.93223e-08
4.52913e-06
4.67693e-08
4.52476e-06
5.51371e-08
4.52303e-06
8.08543e-08
4.52043e-06
1.11982e-07
4.51836e-06
1.37488e-07
4.52062e-06
1.60711e-07
1.8149e-07
4.52359e-06
4.75242e-06
2.10919e-07
4.73255e-06
-2.30022e-07
4.75939e-06
2.02809e-07
4.74076e-06
-1.30289e-07
4.75943e-06
-1.43916e-08
4.75428e-06
3.75084e-08
4.75497e-06
-1.28863e-07
4.76129e-06
2.19199e-08
4.7541e-06
-3.90384e-08
4.75688e-06
-4.43702e-08
4.7522e-06
1.79452e-08
4.7457e-06
-2.30911e-11
4.74581e-06
1.92063e-08
4.74148e-06
5.11049e-08
4.7365e-06
6.01192e-08
4.73491e-06
8.24444e-08
4.73325e-06
1.13643e-07
4.73214e-06
1.38593e-07
4.7344e-06
1.58454e-07
1.78375e-07
4.73751e-06
4.97934e-06
2.00376e-07
4.95913e-06
-2.09807e-07
4.98529e-06
1.76641e-07
4.96861e-06
-1.13604e-07
4.98545e-06
-3.12313e-08
4.98287e-06
4.00845e-08
4.98182e-06
-1.27813e-07
4.98859e-06
1.51493e-08
4.97911e-06
-2.95556e-08
4.97891e-06
-4.41748e-08
4.97512e-06
2.17418e-08
4.96755e-06
7.54966e-09
4.96752e-06
1.92303e-08
4.96431e-06
5.43144e-08
4.959e-06
6.54261e-08
4.95727e-06
8.41774e-08
4.95647e-06
1.14446e-07
4.95638e-06
1.38682e-07
4.95796e-06
1.56877e-07
1.74844e-07
4.96149e-06
5.21701e-06
1.89681e-07
5.19686e-06
-1.89653e-07
5.2216e-06
1.51899e-07
5.20738e-06
-9.93885e-08
5.22236e-06
-4.62079e-08
5.22214e-06
4.03091e-08
5.21953e-06
-1.25209e-07
5.22528e-06
9.39832e-09
5.213e-06
-1.72768e-08
5.21136e-06
-4.25357e-08
5.20888e-06
2.42225e-08
5.20076e-06
1.56749e-08
5.20004e-06
1.99481e-08
5.19796e-06
5.63909e-08
5.19271e-06
7.06789e-08
5.19063e-06
8.62611e-08
5.19067e-06
1.14399e-07
5.19127e-06
1.38084e-07
5.19259e-06
1.55557e-07
1.71155e-07
5.19628e-06
5.46595e-06
1.78924e-07
5.44629e-06
-1.70001e-07
5.46896e-06
1.29233e-07
5.45735e-06
-8.77811e-08
5.47075e-06
-5.96047e-08
5.47229e-06
3.87678e-08
5.46771e-06
-1.20624e-07
5.47121e-06
5.89919e-09
5.45793e-06
-3.99692e-09
5.45497e-06
-3.9584e-08
5.45398e-06
2.52133e-08
5.4458e-06
2.38627e-08
5.44394e-06
2.18074e-08
5.44287e-06
5.74599e-08
5.43804e-06
7.55011e-08
5.43555e-06
8.87541e-08
5.43631e-06
1.13638e-07
5.43736e-06
1.37039e-07
5.43884e-06
1.54071e-07
1.67436e-07
5.44256e-06
5.7267e-06
1.68187e-07
5.70799e-06
-1.51292e-07
5.72817e-06
1.09051e-07
5.71874e-06
-7.83586e-08
5.73083e-06
-7.16878e-08
5.73265e-06
3.69499e-08
5.7243e-06
-1.12281e-07
5.72777e-06
2.43455e-09
5.71498e-06
8.79164e-09
5.71057e-06
-3.51718e-08
5.71082e-06
2.49562e-08
5.70305e-06
3.16324e-08
5.69988e-06
2.49842e-08
5.6995e-06
5.78337e-08
5.69545e-06
7.95494e-08
5.69266e-06
9.15538e-08
5.69383e-06
1.12463e-07
5.6953e-06
1.35568e-07
5.69716e-06
1.52217e-07
1.63684e-07
5.70091e-06
5.99985e-06
1.57533e-07
5.98249e-06
-1.33939e-07
6.00005e-06
9.14912e-08
5.9918e-06
-7.01001e-08
6.00202e-06
-8.1912e-08
6.00277e-06
3.61985e-08
5.99193e-06
-1.01437e-07
5.99623e-06
-1.86749e-09
5.98494e-06
2.00824e-08
5.97879e-06
-2.9026e-08
5.97989e-06
2.38549e-08
5.97295e-06
3.85747e-08
5.96854e-06
2.93944e-08
5.96845e-06
5.79241e-08
5.96539e-06
8.26071e-08
5.96255e-06
9.44019e-08
5.96378e-06
1.11233e-07
5.96572e-06
1.33625e-07
5.96805e-06
1.49889e-07
1.59855e-07
5.97188e-06
6.28602e-06
1.47003e-07
6.27032e-06
-1.18237e-07
6.28547e-06
7.63386e-08
6.27691e-06
-6.15441e-08
6.28434e-06
-8.93441e-08
6.28552e-06
3.50242e-08
6.27315e-06
-8.90651e-08
6.27757e-06
-6.29515e-09
6.26821e-06
2.94475e-08
6.26036e-06
-2.11784e-08
6.26176e-06
2.24557e-08
6.25595e-06
4.43817e-08
6.2506e-06
3.47522e-08
6.25038e-06
5.81404e-08
6.24835e-06
8.46365e-08
6.24581e-06
9.69436e-08
6.24679e-06
1.10255e-07
6.24921e-06
1.31202e-07
6.25207e-06
1.47031e-07
1.55889e-07
6.25603e-06
6.58586e-06
1.36617e-07
6.57194e-06
-1.04321e-07
6.58512e-06
6.31597e-08
6.57523e-06
-5.16532e-08
6.58003e-06
-9.41467e-08
6.58232e-06
3.27369e-08
6.56873e-06
-7.54772e-08
6.57245e-06
-1.0015e-08
6.56521e-06
3.66826e-08
6.55597e-06
-1.19329e-08
6.55708e-06
2.1347e-08
6.55257e-06
4.88924e-08
6.54667e-06
4.06514e-08
6.54601e-06
5.87941e-08
6.5449e-06
8.57542e-08
6.54296e-06
9.88807e-08
6.54358e-06
1.09635e-07
6.54638e-06
1.28398e-07
6.54979e-06
1.43623e-07
1.51713e-07
6.55397e-06
6.90003e-06
1.26373e-07
6.88782e-06
-9.2108e-08
6.89968e-06
5.13043e-08
6.88836e-06
-4.03334e-08
6.89029e-06
-9.60767e-08
6.89352e-06
2.95025e-08
6.87918e-06
-6.11387e-08
6.88159e-06
-1.24183e-08
6.87642e-06
4.18446e-08
6.86629e-06
-1.8023e-09
6.8666e-06
2.10457e-08
6.86335e-06
5.21347e-08
6.85735e-06
4.66539e-08
6.85611e-06
6.00384e-08
6.8557e-06
8.61608e-08
6.85452e-06
1.00056e-07
6.85488e-06
1.09274e-07
6.85791e-06
1.25371e-07
6.86184e-06
1.39693e-07
1.47252e-07
6.8663e-06
7.22926e-06
1.16254e-07
7.21846e-06
-8.13147e-08
7.22984e-06
3.99241e-08
7.21738e-06
-2.78728e-08
7.21591e-06
-9.46072e-08
7.21968e-06
2.57305e-08
7.20507e-06
-4.65264e-08
7.20575e-06
-1.3095e-08
7.20239e-06
4.52032e-08
7.192e-06
8.58563e-09
7.19112e-06
2.19256e-08
7.18895e-06
5.43025e-08
7.18323e-06
5.2374e-08
7.1814e-06
6.18694e-08
7.18151e-06
8.60553e-08
7.18109e-06
1.00473e-07
7.18141e-06
1.08956e-07
7.18452e-06
1.22266e-07
7.18889e-06
1.35318e-07
1.42454e-07
7.19369e-06
7.57424e-06
1.06238e-07
7.56454e-06
-7.16154e-08
7.57612e-06
2.83458e-08
7.56308e-06
-1.48317e-08
7.55773e-06
-8.92624e-08
7.56145e-06
2.20123e-08
7.54703e-06
-3.20997e-08
7.54573e-06
-1.18028e-08
7.54381e-06
4.71282e-08
7.53369e-06
1.87026e-08
7.53151e-06
2.4108e-08
7.53009e-06
5.57196e-08
7.52493e-06
5.7537e-08
7.52264e-06
6.41575e-08
7.5231e-06
8.55986e-08
7.52335e-06
1.00224e-07
7.52385e-06
1.08453e-07
7.52695e-06
1.19164e-07
7.53166e-06
1.30609e-07
1.37293e-07
7.53682e-06
7.93573e-06
9.63149e-08
7.9267e-06
-6.25822e-08
7.93897e-06
1.6077e-08
7.92619e-06
-2.05302e-09
7.91652e-06
-7.95868e-08
7.91953e-06
1.89943e-08
7.90572e-06
-1.82888e-08
7.9024e-06
-8.48324e-09
7.90142e-06
4.81079e-08
7.892e-06
2.81309e-08
7.8886e-06
2.7505e-08
7.88757e-06
5.67442e-08
7.8831e-06
6.20076e-08
7.88056e-06
6.67024e-08
7.88125e-06
8.49112e-08
7.88205e-06
9.94158e-08
7.88291e-06
1.07599e-07
7.88599e-06
1.16078e-07
7.89092e-06
1.25686e-07
1.31779e-07
7.89643e-06
8.31449e-06
8.65032e-08
8.30572e-06
-5.38058e-08
8.319e-06
2.79844e-09
8.30703e-06
9.91368e-09
8.293e-06
-6.55599e-08
8.29469e-06
1.73046e-08
8.28188e-06
-5.47385e-09
8.27665e-06
-3.25965e-09
8.27605e-06
4.87108e-08
8.26758e-06
3.65975e-08
8.2632e-06
3.18843e-08
8.26226e-06
5.76868e-08
8.2585e-06
6.57681e-08
8.2559e-06
6.93047e-08
8.25675e-06
8.40625e-08
8.25803e-06
9.81281e-08
8.25934e-06
1.06298e-07
8.26244e-06
1.12975e-07
8.26747e-06
1.20653e-07
1.2596e-07
8.27329e-06
8.7113e-06
7.68693e-08
8.70298e-06
-4.54931e-08
8.71571e-06
-9.9237e-09
8.70547e-06
2.01478e-08
8.68781e-06
-4.78973e-08
8.68776e-06
1.73485e-08
8.67624e-06
6.05141e-09
8.66937e-06
3.61006e-09
8.6686e-06
4.94813e-08
8.66119e-06
4.40112e-08
8.65614e-06
3.69343e-08
8.65505e-06
5.87708e-08
8.65196e-06
6.88638e-08
8.64945e-06
7.18132e-08
8.65042e-06
8.30907e-08
8.65212e-06
9.64248e-08
8.65393e-06
1.04495e-07
8.6571e-06
1.09796e-07
8.66217e-06
1.15587e-07
1.19916e-07
8.66821e-06
9.12696e-06
6.753e-08
9.11927e-06
-3.78032e-08
9.13001e-06
-2.06619e-08
9.12105e-06
2.9108e-08
9.10156e-06
-2.84132e-08
9.09967e-06
1.92455e-08
9.08958e-06
1.61357e-08
9.08146e-06
1.17317e-08
9.08004e-06
5.09044e-08
9.07361e-06
5.04418e-08
9.06821e-06
4.23306e-08
9.06686e-06
6.01208e-08
9.06436e-06
7.13663e-08
9.06206e-06
7.4106e-08
9.06308e-06
8.20746e-08
9.06518e-06
9.43275e-08
9.06751e-06
1.0216e-07
9.07084e-06
1.06466e-07
9.0759e-06
1.10531e-07
1.13739e-07
9.08208e-06
9.56235e-06
5.8642e-08
9.55322e-06
-2.86752e-08
9.56003e-06
-2.74719e-08
9.55447e-06
3.46706e-08
9.53505e-06
-8.99525e-09
9.53141e-06
2.28809e-08
9.52271e-06
2.48402e-08
9.51376e-06
2.06795e-08
9.51138e-06
5.3283e-08
9.50572e-06
5.61028e-08
9.50026e-06
4.77941e-08
9.49862e-06
6.17584e-08
9.49663e-06
7.33537e-08
9.49464e-06
7.60975e-08
9.49562e-06
8.11007e-08
9.49809e-06
9.18493e-08
9.50098e-06
9.9278e-08
9.50455e-06
1.02896e-07
9.50959e-06
1.05488e-07
1.07509e-07
9.51582e-06
1.00184e-05
5.03782e-08
1.00063e-05
-1.65885e-08
1.001e-05
-3.11562e-08
1.00076e-05
3.70707e-08
9.98937e-06
9.23446e-09
9.98403e-06
2.82175e-08
9.97646e-06
3.24126e-08
9.96715e-06
2.99842e-08
9.96367e-06
5.6768e-08
9.95849e-06
6.12769e-08
9.95315e-06
5.31391e-08
9.95127e-06
6.36324e-08
9.94973e-06
7.48989e-08
9.94808e-06
7.77475e-08
9.94897e-06
8.02112e-08
9.95178e-06
8.90393e-08
9.95521e-06
9.58516e-08
9.95911e-06
9.89928e-08
9.96418e-06
1.00416e-07
1.0128e-07
9.97041e-06
1.04962e-05
4.28607e-08
1.04821e-05
-2.55972e-09
1.04835e-05
-3.25689e-08
1.04826e-05
3.80378e-08
1.04656e-05
2.62064e-08
1.04586e-05
3.52653e-08
1.04517e-05
3.92447e-08
1.04425e-05
3.91894e-08
1.04379e-05
6.1359e-08
1.04329e-05
6.62748e-08
1.04278e-05
5.82684e-08
1.04258e-05
6.56581e-08
1.04246e-05
7.60554e-08
1.04233e-05
7.90246e-08
1.04241e-05
7.94213e-08
1.04272e-05
8.59791e-08
1.04311e-05
9.19066e-08
1.04354e-05
9.46784e-08
1.04406e-05
9.52454e-08
9.50709e-08
1.04468e-05
1.09967e-05
3.61394e-08
1.09882e-05
5.97427e-09
1.09815e-05
-2.58529e-08
1.09804e-05
3.90959e-08
1.09649e-05
4.17254e-08
1.09561e-05
4.40683e-08
1.09495e-05
4.58096e-08
1.09408e-05
4.79714e-08
1.09352e-05
6.68795e-08
1.09301e-05
7.14159e-08
1.09252e-05
6.31748e-08
1.09231e-05
6.77539e-08
1.09223e-05
7.68597e-08
1.09214e-05
7.98717e-08
1.09221e-05
7.87581e-08
1.09253e-05
8.2751e-08
1.09297e-05
8.75015e-08
1.09345e-05
8.99001e-08
1.09399e-05
8.9887e-08
8.88602e-08
1.09461e-05
1.15211e-05
3.04087e-08
1.15091e-05
1.79795e-08
1.15027e-05
-1.95028e-08
1.15024e-05
3.9451e-08
1.14884e-05
5.56734e-08
1.14779e-05
5.46101e-08
1.14711e-05
5.26424e-08
1.14628e-05
5.62146e-08
1.14567e-05
7.30236e-08
1.14511e-05
7.69429e-08
1.14464e-05
6.79623e-08
1.14443e-05
6.98361e-08
1.14438e-05
7.73331e-08
1.14435e-05
8.01964e-08
1.1444e-05
7.82301e-08
1.14473e-05
7.94284e-08
1.14521e-05
8.27302e-08
1.14574e-05
8.46372e-08
1.1463e-05
8.42519e-08
8.25915e-08
1.14693e-05
1.20705e-05
2.57153e-08
1.20586e-05
2.98917e-08
1.20493e-05
-1.01646e-08
1.20493e-05
3.94647e-08
1.20371e-05
6.78229e-08
1.20251e-05
6.66386e-08
1.20175e-05
6.02164e-08
1.20097e-05
6.39857e-08
1.20033e-05
7.94642e-08
1.19973e-05
8.29281e-08
1.19924e-05
7.28596e-08
1.19904e-05
7.18688e-08
1.19902e-05
7.74983e-08
1.19904e-05
7.99808e-08
1.1991e-05
7.76724e-08
1.19943e-05
7.6135e-08
1.19993e-05
7.77104e-08
1.2005e-05
7.89083e-08
1.2011e-05
7.82622e-08
7.6181e-08
1.20174e-05
1.26462e-05
2.21179e-08
1.26351e-05
4.10138e-08
1.26238e-05
1.15174e-09
1.26225e-05
4.07343e-08
1.26119e-05
7.84216e-08
1.25988e-05
7.96921e-08
1.25901e-05
6.89294e-08
1.25826e-05
7.14903e-08
1.25761e-05
8.5974e-08
1.25698e-05
8.92755e-08
1.25645e-05
7.80861e-08
1.25625e-05
7.39292e-08
1.25626e-05
7.73757e-08
1.25633e-05
7.93035e-08
1.25642e-05
7.67127e-08
1.25673e-05
7.3033e-08
1.25725e-05
7.25317e-08
1.25786e-05
7.28132e-08
1.2585e-05
7.18558e-08
6.9527e-08
1.25917e-05
1.32494e-05
1.96289e-08
1.32419e-05
4.85429e-08
1.32272e-05
1.58385e-08
1.32234e-05
4.45369e-08
1.32139e-05
8.78962e-08
1.32003e-05
9.32781e-08
1.31902e-05
7.90427e-08
1.31827e-05
7.90045e-08
1.31762e-05
9.24437e-08
1.31697e-05
9.58149e-08
1.31641e-05
8.37414e-08
1.31618e-05
7.62191e-08
1.31621e-05
7.70652e-08
1.31632e-05
7.81874e-08
1.31648e-05
7.51163e-08
1.31677e-05
7.01331e-08
1.3173e-05
6.71764e-08
1.31792e-05
6.6609e-08
1.31861e-05
6.49586e-08
6.2516e-08
1.31932e-05
1.38815e-05
1.82442e-08
1.38755e-05
5.45636e-08
1.38594e-05
3.19431e-08
1.38533e-05
5.06355e-08
1.38446e-05
9.66093e-08
1.38309e-05
1.07034e-07
1.38192e-05
9.06543e-08
1.38113e-05
8.69134e-08
1.38049e-05
9.88459e-08
1.37983e-05
1.02412e-07
1.37923e-05
8.97872e-08
1.37896e-05
7.89511e-08
1.37899e-05
7.67497e-08
1.37914e-05
7.66119e-08
1.37936e-05
7.29195e-08
1.37966e-05
6.71747e-08
1.38022e-05
6.15865e-08
1.38082e-05
6.05683e-08
1.38157e-05
5.75089e-08
5.50548e-08
1.38231e-05
1.4544e-05
1.79285e-08
1.45368e-05
6.17087e-08
1.45216e-05
4.71481e-08
1.45136e-05
5.86847e-08
1.45053e-05
1.0487e-07
1.44916e-05
1.20752e-07
1.44786e-05
1.03656e-07
1.44698e-05
9.5676e-08
1.44635e-05
1.05232e-07
1.44569e-05
1.08983e-07
1.44506e-05
9.61128e-08
1.44472e-05
8.22773e-08
1.44474e-05
7.66217e-08
1.44493e-05
7.46884e-08
1.4452e-05
7.02463e-08
1.44554e-05
6.37142e-08
1.44608e-05
5.61699e-08
1.44673e-05
5.41423e-08
1.44748e-05
4.99198e-08
4.69899e-08
1.44829e-05
1.52382e-05
1.85768e-08
1.52326e-05
6.73637e-08
1.52161e-05
6.36326e-08
1.52056e-05
6.92126e-08
1.51974e-05
1.13009e-07
1.51839e-05
1.34272e-07
1.51697e-05
1.17834e-07
1.51597e-05
1.05671e-07
1.51531e-05
1.11827e-07
1.51466e-05
1.15481e-07
1.51401e-05
1.02636e-07
1.51361e-05
8.62512e-08
1.51359e-05
7.68964e-08
1.51379e-05
7.26224e-08
1.51411e-05
6.71148e-08
1.51452e-05
5.95898e-08
1.51502e-05
5.11622e-08
1.51576e-05
4.67062e-08
1.5165e-05
4.25588e-08
3.83172e-08
1.51737e-05
1.59658e-05
2.01488e-08
1.59605e-05
7.26434e-08
1.59434e-05
8.06872e-08
1.5931e-05
8.16199e-08
1.59224e-05
1.21614e-07
1.59092e-05
1.47481e-07
1.5894e-05
1.33012e-07
1.58826e-05
1.17096e-07
1.58754e-05
1.19017e-07
1.5869e-05
1.21938e-07
1.58623e-05
1.09317e-07
1.58577e-05
9.08245e-08
1.58568e-05
7.78258e-08
1.58588e-05
7.059e-08
1.58623e-05
6.3591e-08
1.58669e-05
5.49988e-08
1.58722e-05
4.59152e-08
1.58798e-05
3.90686e-08
1.58882e-05
3.41704e-08
3.00167e-08
1.58965e-05
1.67282e-05
2.25912e-08
1.67197e-05
8.10751e-08
1.67056e-05
9.48149e-08
1.66916e-05
9.56694e-08
1.66819e-05
1.31294e-07
1.66689e-05
1.60414e-07
1.6653e-05
1.48981e-07
1.664e-05
1.30032e-07
1.66318e-05
1.27201e-07
1.66252e-05
1.28541e-07
1.66184e-05
1.16171e-07
1.66133e-05
9.59359e-08
1.66115e-05
7.96274e-08
1.66133e-05
6.88072e-08
1.6617e-05
5.98307e-08
1.66219e-05
5.00966e-08
1.66279e-05
3.9958e-08
1.66356e-05
3.1367e-08
1.66446e-05
2.51406e-08
2.10547e-08
1.66536e-05
1.75272e-05
2.5715e-08
1.75235e-05
8.4777e-08
1.75054e-05
1.12945e-07
1.74887e-05
1.12379e-07
1.74775e-05
1.4245e-07
1.74647e-05
1.73276e-07
1.74481e-05
1.65532e-07
1.74336e-05
1.44531e-07
1.74241e-05
1.36724e-07
1.7417e-05
1.35629e-07
1.74099e-05
1.23275e-07
1.74042e-05
1.01625e-07
1.74014e-05
8.24166e-08
1.74027e-05
6.75786e-08
1.74065e-05
5.60292e-08
1.74118e-05
4.47871e-08
1.74184e-05
3.33271e-08
1.74264e-05
2.33223e-08
1.74358e-05
1.57471e-08
1.07521e-08
1.74461e-05
1.83646e-05
2.94774e-08
1.83572e-05
9.21833e-08
1.83428e-05
1.27309e-07
1.83243e-05
1.3092e-07
1.83112e-05
1.55496e-07
1.82981e-05
1.86383e-07
1.82811e-05
1.82536e-07
1.8265e-05
1.60597e-07
1.82539e-05
1.47886e-07
1.82459e-05
1.43615e-07
1.82384e-05
1.30805e-07
1.82319e-05
1.08075e-07
1.82281e-05
8.62374e-08
1.82284e-05
6.72435e-08
1.8232e-05
5.24276e-08
1.82377e-05
3.91062e-08
1.8245e-05
2.60365e-08
1.82538e-05
1.45557e-08
1.82638e-05
5.71634e-09
-6.48311e-10
1.82752e-05
1.92421e-05
3.38029e-08
1.92357e-05
9.85273e-08
1.92201e-05
1.42924e-07
1.91999e-05
1.51137e-07
1.91848e-05
1.70537e-07
1.91711e-05
2.00145e-07
1.91537e-05
1.99956e-07
1.9136e-05
1.78217e-07
1.9123e-05
1.60975e-07
1.91136e-05
1.52942e-07
1.91053e-05