/*--------------------------------*- C++ -*----------------------------------*\
| =========                 |                                                 |
| \\      /  F ield         | OpenFOAM: The Open Source CFD Toolbox           |
|  \\    /   O peration     | Version:  v2012                                 |
|   \\  /    A nd           | Website:  www.openfoam.com                      |
|    \\/     M anipulation  |                                                 |
\*---------------------------------------------------------------------------*/
FoamFile
{
    version     2.0;
    format      ascii;
    class       volScalarField;
    location    "4.75";
    object      p;
}
// * * * * * * * * * * * * * * * * * * * * * * * * * * * * * * * * * * * * * //

dimensions      [0 2 -2 0 0 0 0];


internalField   nonuniform List<scalar> 
17600
(
9.67181e-11
0.00035451
-0.000429112
-0.00129264
-0.00108311
-0.00130064
-0.00156885
-0.00226097
-0.00224403
-0.0030974
-0.00304628
-0.00385481
-0.00364207
-0.00394468
-0.00381411
-0.00335439
-0.00267731
-0.000885673
0.000918819
0.00498364
6.96348e-07
0.000353629
-0.000428182
-0.00129258
-0.00108283
-0.00130303
-0.00156877
-0.00226378
-0.00224336
-0.00310212
-0.00304464
-0.00386157
-0.00363952
-0.00395401
-0.00380975
-0.00337283
-0.0026682
-0.00095351
0.000933233
0.00465674
1.66683e-06
0.000352003
-0.000426367
-0.00129283
-0.00108292
-0.00130613
-0.00156921
-0.00226834
-0.00224369
-0.00310961
-0.00304374
-0.00387196
-0.0036365
-0.00396742
-0.00380499
-0.00339632
-0.00265825
-0.00101603
0.000928045
0.00422343
2.75176e-06
0.00034979
-0.000424225
-0.00129321
-0.00108359
-0.00130896
-0.00157048
-0.00227393
-0.00224552
-0.00311863
-0.00304454
-0.00388309
-0.00363465
-0.0039804
-0.00380189
-0.00341897
-0.00265018
-0.00107898
0.000893321
0.00379428
4.11036e-06
0.000346855
-0.000421681
-0.00129371
-0.00108475
-0.00131172
-0.0015724
-0.00228044
-0.00224803
-0.00312883
-0.00304556
-0.0038943
-0.00363262
-0.00399261
-0.00379905
-0.00344129
-0.00264492
-0.00114437
0.000828625
0.00338694
5.81961e-06
0.000343176
-0.000418598
-0.00129437
-0.00108622
-0.00131447
-0.00157463
-0.0022876
-0.00225051
-0.00313969
-0.00304596
-0.00390528
-0.00362986
-0.00400431
-0.00379627
-0.00346396
-0.00264388
-0.00121281
0.000733913
0.0030028
7.84657e-06
0.000338864
-0.000415003
-0.00129519
-0.0010878
-0.00131719
-0.00157689
-0.00229515
-0.00225273
-0.00315087
-0.00304601
-0.00391583
-0.00362716
-0.00401543
-0.00379486
-0.00348685
-0.00264912
-0.00128448
0.000609878
0.00263755
1.01322e-05
0.000334071
-0.000410996
-0.00129611
-0.00108933
-0.00131989
-0.00157906
-0.00230303
-0.00225478
-0.00316232
-0.00304616
-0.00392594
-0.00362544
-0.00402565
-0.0037964
-0.00350908
-0.00266291
-0.00135873
0.000457895
0.0022852
1.26465e-05
0.000328919
-0.000406676
-0.0012971
-0.00109077
-0.00132262
-0.00158113
-0.00231126
-0.00225681
-0.00317407
-0.00304674
-0.00393559
-0.0036252
-0.00403466
-0.00380206
-0.00352972
-0.00268734
-0.00143523
0.000280258
0.00193922
1.53937e-05
0.000323481
-0.000402125
-0.00129815
-0.00109214
-0.00132541
-0.00158316
-0.00231987
-0.00225898
-0.00318604
-0.00304799
-0.00394454
-0.00362686
-0.00404205
-0.0038127
-0.00354825
-0.00272408
-0.00151441
8.04065e-05
0.0015936
1.83963e-05
0.000317791
-0.000397397
-0.00129929
-0.00109349
-0.00132826
-0.00158521
-0.00232882
-0.00226143
-0.00319809
-0.00305018
-0.00395243
-0.00363106
-0.00404716
-0.00382912
-0.00356467
-0.00277401
-0.00159807
-0.000137197
0.00124378
2.1683e-05
0.000311859
-0.000392519
-0.00130053
-0.00109482
-0.00133117
-0.00158734
-0.00233802
-0.00226431
-0.00320998
-0.00305365
-0.00395876
-0.00363856
-0.00404937
-0.00385196
-0.00357885
-0.00283716
-0.00168956
-0.00036744
0.000887291
2.52836e-05
0.000305691
-0.000387494
-0.00130189
-0.00109614
-0.00133412
-0.0015896
-0.00234738
-0.00226778
-0.00322143
-0.00305882
-0.00396305
-0.00365008
-0.00404836
-0.00388183
-0.0035924
-0.00291242
-0.00179301
-0.00060547
0.000523858
2.92271e-05
0.000299291
-0.000382321
-0.00130336
-0.00109746
-0.00133706
-0.00159203
-0.00235678
-0.00227207
-0.0032321
-0.00306615
-0.00396481
-0.00366624
-0.00404399
-0.00391915
-0.00360684
-0.00299735
-0.00191224
-0.000847839
0.000154798
3.35417e-05
0.000292664
-0.000376994
-0.00130494
-0.0010988
-0.00133997
-0.00159472
-0.00236605
-0.00227741
-0.00324161
-0.00307613
-0.00396363
-0.00368756
-0.00403641
-0.00396376
-0.00362491
-0.00308898
-0.00204997
-0.00109308
-0.000217328
3.82523e-05
0.000285817
-0.000371505
-0.0013066
-0.00110017
-0.00134278
-0.00159776
-0.00237502
-0.00228409
-0.00324959
-0.00308924
-0.00395917
-0.00371424
-0.00402629
-0.00401472
-0.00364981
-0.00318487
-0.00220773
-0.00134133
-0.000589311
4.33814e-05
0.000278763
-0.000365851
-0.00130832
-0.00110164
-0.00134542
-0.0016013
-0.00238345
-0.00229243
-0.00325566
-0.00310592
-0.00395128
-0.00374606
-0.00401435
-0.00407053
-0.00368486
-0.00328375
-0.00238546
-0.00159402
-0.000958148
4.89474e-05
0.000271524
-0.000360031
-0.00131005
-0.00110328
-0.00134777
-0.0016055
-0.00239113
-0.00230275
-0.00325948
-0.00312648
-0.00394015
-0.00378259
-0.00400361
-0.0041292
-0.00373296
-0.0033856
-0.00258142
-0.00185362
-0.0013217
5.49594e-05
0.000264138
-0.000354044
-0.00131171
-0.00110521
-0.00134967
-0.00161056
-0.00239778
-0.00231534
-0.00326082
-0.00315101
-0.00392621
-0.00382325
-0.00399573
-0.00418863
-0.0037961
-0.0034912
-0.00279262
-0.00212274
-0.00167863
6.14114e-05
0.000256672
-0.000347897
-0.00131321
-0.00110756
-0.00135097
-0.00161672
-0.00240316
-0.00233044
-0.00325961
-0.00317935
-0.00391026
-0.0038669
-0.00399289
-0.0042476
-0.00387551
-0.00360222
-0.00301563
-0.00240321
-0.0020284
6.82842e-05
0.000249222
-0.000341633
-0.00131441
-0.00111052
-0.00135147
-0.00162422
-0.00240707
-0.00234817
-0.00325595
-0.00321105
-0.00389346
-0.00391199
-0.00399698
-0.00430585
-0.00397169
-0.00372155
-0.00324748
-0.0026958
-0.00237152
7.55415e-05
0.000241923
-0.000335306
-0.00131515
-0.00111429
-0.00135096
-0.00163323
-0.00240944
-0.00236846
-0.00325023
-0.00324537
-0.00387705
-0.00395713
-0.00400934
-0.00436364
-0.00408438
-0.00385306
-0.00348669
-0.00300049
-0.00270963
8.31148e-05
0.000234961
-0.000328976
-0.00131527
-0.00111907
-0.00134929
-0.00164384
-0.00241036
-0.00239102
-0.00324303
-0.00328143
-0.00386203
-0.00400139
-0.00403085
-0.00442194
-0.00421261
-0.0040007
-0.00373351
-0.00331696
-0.0030454
9.0897e-05
0.000228585
-0.000322718
-0.00131461
-0.00112507
-0.00134635
-0.00165607
-0.00241002
-0.00241543
-0.00323502
-0.00331828
-0.0038491
-0.00404395
-0.00406183
-0.00448205
-0.00435495
-0.00416733
-0.00398927
-0.00364545
-0.00338291
9.8774e-05
0.000223099
-0.000316594
-0.001313
-0.00113239
-0.00134215
-0.00166978
-0.00240892
-0.00244097
-0.00322715
-0.00335492
-0.00383932
-0.00408424
-0.00410205
-0.00454494
-0.00450909
-0.00435463
-0.00425672
-0.00398928
-0.00372825
0.000106588
0.000218887
-0.000310667
-0.00131037
-0.00114107
-0.00133558
-0.00168463
-0.00240775
-0.00246663
-0.00322025
-0.00339078
-0.00383287
-0.00412219
-0.00415099
-0.00461071
-0.00466958
-0.00455739
-0.00453788
-0.00436037
-0.00409075
0.000114087
0.000216374
-0.000304926
-0.0013067
-0.00115115
-0.00132993
-0.00169997
-0.00240725
-0.00249171
-0.00321436
-0.00342575
-0.00382935
-0.0041585
-0.00420842
-0.00467988
-0.00483358
-0.00477318
-0.00482351
-0.00473684
-0.00450437
0.000121016
0.000215965
-0.000299238
-0.00130206
-0.00116247
-0.00132448
-0.00171505
-0.00240813
-0.0025158
-0.00320929
-0.00345983
-0.00382873
-0.00419319
-0.00427533
-0.00475489
-0.00500842
-0.00501077
-0.00511838
-0.00512273
-0.00493093
0.000127112
0.000218059
-0.000293408
-0.00129664
-0.00117465
-0.00131989
-0.00172932
-0.00241058
-0.00253896
-0.00320465
-0.00349357
-0.00383298
-0.004227
-0.00435643
-0.00484722
-0.00519094
-0.00526296
-0.00542232
-0.0055135
-0.005364
0.000132073
0.000222972
-0.000287029
-0.00129085
-0.00118711
-0.00131685
-0.00174253
-0.00241431
-0.00256234
-0.00319963
-0.00352883
-0.00384758
-0.00426604
-0.00445002
-0.00495401
-0.00537863
-0.00552435
-0.00573134
-0.00590141
-0.00579791
0.000135687
0.000231016
-0.000279532
-0.00128532
-0.0011992
-0.00131582
-0.0017548
-0.00241892
-0.00258728
-0.003195
-0.00356726
-0.00387487
-0.00430902
-0.00454983
-0.00507164
-0.00557078
-0.00579235
-0.00604338
-0.00628238
-0.00622709
0.000137765
0.000242327
-0.000270053
-0.00128067
-0.00121065
-0.00131693
-0.00176699
-0.00242401
-0.00261563
-0.00319595
-0.00360875
-0.00391269
-0.00435542
-0.00465186
-0.00519706
-0.00576607
-0.00606669
-0.00636036
-0.00665611
-0.00664807
0.000138135
0.000256769
-0.000257335
-0.00127747
-0.00122134
-0.0013199
-0.0017808
-0.00242985
-0.00264945
-0.00320553
-0.00365008
-0.00395735
-0.00440493
-0.00475517
-0.00532875
-0.00596429
-0.00634825
-0.0066854
-0.00702339
-0.00705722
0.000136777
0.000273953
-0.00023995
-0.00127597
-0.00123157
-0.00132432
-0.0017986
-0.00243892
-0.0026892
-0.00322173
-0.00368864
-0.00400584
-0.00445889
-0.00486088
-0.00546662
-0.00616554
-0.0066362
-0.00701854
-0.0073851
-0.00745145
0.000133785
0.000294943
-0.000216392
-0.00127493
-0.00124251
-0.00132987
-0.00182315
-0.00245596
-0.0027324
-0.00324297
-0.00372392
-0.00405617
-0.00451867
-0.00497057
-0.00561021
-0.00636848
-0.00692737
-0.00735784
-0.00774299
-0.00783023
0.000129435
0.00032213
-0.000185731
-0.00127312
-0.00125543
-0.00133705
-0.00185676
-0.00247858
-0.00277561
-0.00326835
-0.00375671
-0.00410704
-0.0045846
-0.00508597
-0.00575959
-0.00657127
-0.00721752
-0.00770118
-0.00809976
-0.00819577
0.000124038
0.000343232
-0.000147468
-0.00126951
-0.00127275
-0.00134998
-0.00189799
-0.00250662
-0.00281714
-0.00329756
-0.00378985
-0.00415801
-0.00465567
-0.00520833
-0.005916
-0.00677281
-0.00750221
-0.00804554
-0.0084577
-0.00855188
0.000118141
0.00036207
-0.000102678
-0.0012629
-0.00129611
-0.00136804
-0.00194436
-0.00254041
-0.00285643
-0.00333039
-0.00382654
-0.00420982
-0.00472984
-0.00533673
-0.00608088
-0.00697367
-0.00777779
-0.00838614
-0.00881682
-0.00890234
0.000112703
0.000377549
-5.34809e-05
-0.00125224
-0.00132527
-0.00138598
-0.00199481
-0.00258111
-0.00289379
-0.00336575
-0.00386875
-0.00426399
-0.00480441
-0.00546807
-0.00625488
-0.00717686
-0.00804327
-0.00871764
-0.00917417
-0.00924916
0.000108584
0.000387924
-2.14296e-06
-0.00123652
-0.00135966
-0.00140749
-0.00204827
-0.00262975
-0.0029301
-0.00340144
-0.00391709
-0.00432234
-0.00487807
-0.00559913
-0.0064372
-0.0073864
-0.00830056
-0.00903601
-0.00952461
-0.00959167
0.000106582
0.000393775
4.88141e-05
-0.00121496
-0.00139806
-0.00143361
-0.00210303
-0.00268654
-0.00296679
-0.0034351
-0.00397088
-0.00438688
-0.00495112
-0.00572687
-0.00662473
-0.00760397
-0.00855289
-0.00933942
-0.00986267
-0.00992717
0.000107374
0.000395186
9.69149e-05
-0.0011872
-0.00144074
-0.00146597
-0.00215694
-0.00275036
-0.0030058
-0.0034653
-0.00402853
-0.00445981
-0.00502535
-0.00584838
-0.00681242
-0.00782845
-0.0088034
-0.00962823
-0.010184
-0.0102517
0.000111378
0.00039258
0.000140265
-0.00115352
-0.00148765
-0.00150592
-0.00220775
-0.00281936
-0.00304944
-0.00349156
-0.00408715
-0.00454277
-0.0051043
-0.00596219
-0.00699468
-0.00805684
-0.00905441
-0.0099045
-0.0104861
-0.0105605
0.000119416
0.000386855
0.000177635
-0.00111847
-0.00154065
-0.00155183
-0.00225101
-0.0028906
-0.00310033
-0.0035148
-0.00414319
-0.00463508
-0.00519177
-0.00606915
-0.00716653
-0.00828469
-0.00930703
-0.0101716
-0.010769
-0.0108499
0.000132719
0.000380697
0.000208137
-0.00109076
-0.00160774
-0.00159976
-0.00227978
-0.0029587
-0.00315987
-0.0035372
-0.00419304
-0.00473332
-0.00529048
-0.00617189
-0.0073241
-0.00850588
-0.00956005
-0.0104329
-0.0110348
-0.0111178
0.000153934
0.000377101
0.000227693
-0.00108858
-0.00170016
-0.00165096
-0.00229363
-0.00301984
-0.00322817
-0.00356166
-0.00423351
-0.00483258
-0.00540102
-0.00627445
-0.0074661
-0.00871363
-0.00980932
-0.0106902
-0.011287
-0.0113641
0.000184863
0.000374345
0.000223068
-0.00108849
-0.00178168
-0.00171468
-0.00230038
-0.00307242
-0.00330498
-0.00359136
-0.00426402
-0.00492694
-0.00552094
-0.00638101
-0.00759405
-0.00890241
-0.0100491
-0.0109438
-0.0115296
-0.0115916
0.000208667
0.000362578
0.000226805
-0.00107202
-0.00186678
-0.0017956
-0.00230872
-0.00311568
-0.00338983
-0.00363169
-0.00428767
-0.00501196
-0.00564604
-0.00649486
-0.0077117
-0.00906881
-0.0102719
-0.0111903
-0.0117655
-0.0118044
0.00022371
0.000336537
0.000244757
-0.00101362
-0.00195078
-0.00189328
-0.00232108
-0.00314686
-0.00347793
-0.00368521
-0.00430663
-0.00508155
-0.00577017
-0.00661701
-0.00782363
-0.00921245
-0.0104707
-0.0114226
-0.0119928
-0.0120049
0.000257741
0.000329906
0.000197497
-0.00101294
-0.00202377
-0.00200349
-0.00233872
-0.00316202
-0.00356145
-0.00374999
-0.00432274
-0.00513058
-0.00588471
-0.00674455
-0.00793336
-0.00933551
-0.0106417
-0.0116338
-0.0122078
-0.0121943
0.000288788
0.00030714
0.000149114
-0.00100361
-0.00208503
-0.00212342
-0.00236706
-0.00316535
-0.00363739
-0.00382641
-0.00434195
-0.00516218
-0.00598367
-0.0068713
-0.0080421
-0.00944101
-0.010783
-0.0118175
-0.0124048
-0.0123714
0.000304263
0.00027695
0.0001032
-0.000991344
-0.0021409
-0.00225226
-0.00241247
-0.00316093
-0.00370143
-0.0039106
-0.00436851
-0.00518014
-0.00606166
-0.00698828
-0.00814776
-0.00953369
-0.0108975
-0.0119717
-0.0125799
-0.0125346
0.000305766
0.0002421
5.36837e-05
-0.000983854
-0.00218894
-0.00238881
-0.00247714
-0.00315157
-0.00374765
-0.00399636
-0.00440527
-0.00518757
-0.00611281
-0.00708556
-0.00824454
-0.00961515
-0.0109885
-0.0120957
-0.0127287
-0.0126794
0.000311153
0.00020521
-1.6064e-05
-0.000989855
-0.00222733
-0.00252735
-0.00256204
-0.0031418
-0.00377196
-0.00407656
-0.00445255
-0.00518801
-0.00613325
-0.007153
-0.00832434
-0.0096822
-0.0110567
-0.0121885
-0.0128463
-0.0127993
0.000312517
0.000167716
-0.000110614
-0.00101312
-0.0022571
-0.0026622
-0.00266516
-0.00313623
-0.00377382
-0.0041418
-0.00450477
-0.00518544
-0.00612617
-0.00718532
-0.00837878
-0.00973022
-0.0111018
-0.0122498
-0.0129293
-0.0128895
0.000296181
0.00011751
-0.000205694
-0.00104874
-0.0022789
-0.00278758
-0.00278398
-0.00314208
-0.00375777
-0.00418537
-0.00455469
-0.00518318
-0.00609806
-0.00718031
-0.00839856
-0.00975081
-0.0111188
-0.0122762
-0.0129745
-0.0129453
0.000266479
5.07336e-05
-0.000307879
-0.0011016
-0.00230059
-0.00290206
-0.00291538
-0.00316596
-0.00373002
-0.00420239
-0.00459242
-0.00517776
-0.00605184
-0.0071369
-0.00837517
-0.00973319
-0.0110986
-0.0122628
-0.0129788
-0.0129639
0.000220214
1.3543e-05
-0.000420639
-0.00117337
-0.00232658
-0.0030037
-0.00305291
-0.003209
-0.00369687
-0.00419044
-0.0046078
-0.00516216
-0.00598779
-0.00705566
-0.00830224
-0.00966685
-0.0110326
-0.0122046
-0.0129382
-0.0129419
0.000149604
-9.85521e-05
-0.000520402
-0.00126112
-0.00235963
-0.00309081
-0.0031899
-0.00326912
-0.00366376
-0.00415097
-0.00459204
-0.00512713
-0.00590267
-0.0069359
-0.00817424
-0.0095412
-0.0109115
-0.0120943
-0.012848
-0.0128738
7.70434e-05
-0.000153428
-0.000676826
-0.00138431
-0.00240585
-0.00316635
-0.00332107
-0.00334299
-0.00363516
-0.0040884
-0.00454108
-0.00506259
-0.00578948
-0.00677389
-0.00798604
-0.00934619
-0.0107222
-0.0119205
-0.0126986
-0.0127526
-2.16277e-05
-0.000277001
-0.000825656
-0.0015241
-0.00246846
-0.003232
-0.00344136
-0.0034272
-0.00361536
-0.00400769
-0.00445243
-0.00495756
-0.00563607
-0.00656121
-0.00773031
-0.00907199
-0.0104504
-0.0116685
-0.0124775
-0.012568
-0.000156308
-0.000393758
-0.000981384
-0.00167791
-0.00255118
-0.0032949
-0.00355154
-0.00352025
-0.0036078
-0.0039131
-0.00432302
-0.00480194
-0.00542954
-0.00628788
-0.00739876
-0.00870708
-0.0100799
-0.0113179
-0.0121652
-0.0122978
-0.000322133
-0.000558642
-0.00113526
-0.00184417
-0.00265531
-0.00336435
-0.00365714
-0.0036217
-0.00361436
-0.00380946
-0.00415309
-0.00458802
-0.00515694
-0.00593901
-0.00697411
-0.00822815
-0.00957952
-0.010833
-0.0117204
-0.0119113
-0.000513584
-0.000725651
-0.00132488
-0.00203081
-0.00277988
-0.00344768
-0.00376639
-0.0037337
-0.00363962
-0.00370511
-0.00394781
-0.00431167
-0.00480505
-0.00549248
-0.00642636
-0.00759906
-0.00891083
-0.010168
-0.0111046
-0.0113764
-0.000736122
-0.000929073
-0.0015225
-0.00222702
-0.00292126
-0.00355079
-0.00388718
-0.00385867
-0.00369279
-0.0036221
-0.00372692
-0.003978
-0.00436171
-0.00492449
-0.00572499
-0.0067813
-0.00802392
-0.00927684
-0.0102737
-0.0106557
-0.00102839
-0.00117047
-0.00172311
-0.00237271
-0.00304626
-0.00367595
-0.00402399
-0.00399521
-0.00377195
-0.00358092
-0.00351955
-0.0036011
-0.00381667
-0.00420017
-0.00482113
-0.00571319
-0.00684507
-0.00807561
-0.00914635
-0.0096851
-0.00138842
-0.00162349
-0.00196128
-0.00245001
-0.0031458
-0.00382151
-0.00414952
-0.0041094
-0.00385889
-0.00358473
-0.00336895
-0.00321749
-0.00316726
-0.00326418
-0.00360144
-0.00424913
-0.00519354
-0.00635134
-0.00751794
-0.00831235
-0.0016651
-0.00176435
-0.00228562
-0.00291443
-0.0035107
-0.0039948
-0.00424834
-0.0041936
-0.00392675
-0.00363293
-0.00334132
-0.0029854
-0.00252732
-0.00209413
-0.00188715
-0.00204477
-0.00259344
-0.00344636
-0.00446229
-0.0054293
-0.00201866
-0.00214048
-0.00267357
-0.00331766
-0.00383129
-0.00416605
-0.00432448
-0.00425894
-0.00397331
-0.0036184
-0.00342761
-0.00320452
-0.00244539
-0.00140461
-0.000619592
-0.000259489
-0.000165537
-9.95737e-05
8.85385e-05
0.000330397
-0.00247938
-0.0026306
-0.00306904
-0.0036504
-0.00409413
-0.00432537
-0.00437792
-0.00431017
-0.00408293
-0.0033164
-0.00229628
-0.00140382
-0.000674241
-4.93397e-05
0.000528941
0.00112714
0.00179346
0.00251509
0.00314516
0.00333721
-0.00300884
-0.00313911
-0.00353878
-0.00399586
-0.00429239
-0.00444271
-0.00440016
-0.00383001
-0.00301351
-0.00220155
-0.00150952
-0.000935231
-0.000393011
0.000264851
0.0011182
0.00212001
0.00316612
0.00411757
0.0047712
0.00480242
-0.00366964
-0.00370062
-0.00401847
-0.0043431
-0.00435952
-0.00398626
-0.00350616
-0.00300068
-0.00249157
-0.00198448
-0.0014287
-0.000785815
-1.98473e-05
0.000900793
0.00197279
0.00314419
0.00431682
0.00533395
0.00596363
0.00588262
-0.00449564
-0.00455974
-0.0043408
-0.0040743
-0.00378169
-0.00344852
-0.00310789
-0.00277506
-0.00237807
-0.00186251
-0.0012004
-0.000391516
0.000549957
0.00161207
0.00277579
0.00400094
0.00519214
0.00619404
0.00678006
0.00662536
-0.00517625
-0.00509182
-0.0045863
-0.00398615
-0.00351272
-0.0031661
-0.0028689
-0.00255233
-0.00213806
-0.00156209
-0.000815794
7.94975e-05
0.00109836
0.00221718
0.00341767
0.00465462
0.00583795
0.00681749
0.00736677
0.00715882
-0.00569428
-0.00551033
-0.00487877
-0.00409531
-0.00342667
-0.00294792
-0.00259074
-0.0022358
-0.00179096
-0.00119716
-0.000435158
0.000485191
0.00153589
0.00269171
0.00392037
0.00516908
0.00634647
0.00730473
0.00781965
0.00756581
-0.00614068
-0.00588289
-0.00514912
-0.00421677
-0.0033779
-0.00275801
-0.00230716
-0.00190866
-0.00145267
-0.00086135
-9.99446e-05
0.000828579
0.00190092
0.00308397
0.00433441
0.00559119
0.00676042
0.00769627
0.00817808
0.00788383
-0.0065212
-0.00621214
-0.00536937
-0.00431813
-0.00334744
-0.00260557
-0.00207057
-0.00162895
-0.00115884
-0.0005693
0.000187787
0.00112065
0.00220732
0.00340795
0.0046717
0.00593163
0.00709155
0.00800692
0.00846026
0.00813298
-0.00682203
-0.00646097
-0.0055553
-0.0044124
-0.00333794
-0.00249819
-0.0018902
-0.0014058
-0.000916454
-0.000321794
0.000434175
0.00136593
0.00245549
0.00366386
0.00493434
0.00619495
0.00734704
0.00824643
0.00867792
0.00832574
-0.00704709
-0.00665773
-0.00570112
-0.00449709
-0.0033521
-0.00244232
-0.00177609
-0.00124883
-0.000729462
-0.000113867
0.000655069
0.00159296
0.0026837
0.00388969
0.00515704
0.00641268
0.00755581
0.00844179
0.00885652
0.00848582
-0.00718857
-0.00679048
-0.00581124
-0.00457567
-0.00339433
-0.00244677
-0.00174514
-0.00118566
-0.000639697
-3.16474e-06
0.000784472
0.0017408
0.00284829
0.00406641
0.00533801
0.00659018
0.00772469
0.00860017
0.00900557
0.00862769
0.00869841
0.00351502
-0.00390658
-0.00898086
-0.00997696
-0.00873012
-0.00724606
-0.00620627
-0.0056009
-0.00527577
-0.00512577
-0.00510287
-0.00517055
-0.00528774
-0.00542365
-0.00556601
-0.00571146
-0.0058564
-0.00599701
-0.00613226
-0.00626324
-0.0063909
-0.006515
-0.00663485
-0.00675034
-0.00686278
-0.00697414
-0.00708569
-0.00719738
-0.00730856
-0.00741893
-0.00752896
-0.00763945
-0.00775078
-0.00786252
-0.00797376
-0.00808376
-0.00819228
-0.00829943
-0.00840508
-0.00850873
-0.00860979
-0.00870823
-0.00880432
-0.00889835
-0.00899051
-0.00908092
-0.00916958
-0.00925661
-0.0093423
-0.00942714
-0.00951151
-0.00959533
-0.00967834
-0.00976037
-0.00984175
-0.00992286
-0.0100039
-0.0100847
-0.010165
-0.0102449
-0.010325
-0.010405
-0.0104851
-0.0105649
-0.0106448
-0.0107246
-0.0108047
-0.0108846
-0.0109644
-0.011044
-0.0111235
-0.0112032
-0.0112831
-0.0113631
-0.0114429
-0.0115227
-0.0116027
-0.0116829
-0.0117631
-0.0118434
-0.0119236
-0.012004
-0.0120843
-0.0121648
-0.0122451
-0.0123256
-0.0124062
-0.0124871
-0.0125679
-0.0126487
-0.0127299
-0.0128114
-0.0128933
-0.0129754
-0.0130579
-0.0131407
-0.0132241
-0.0133078
-0.013392
-0.0134765
-0.0135616
-0.0136468
-0.0137324
-0.0138182
-0.0139045
-0.0139911
-0.014078
-0.0141652
-0.0142525
-0.0143404
-0.0144284
-0.0145169
-0.0146055
-0.0146947
-0.0147838
-0.0148734
-0.0149631
-0.0150535
-0.015144
-0.0152348
-0.015326
-0.0154175
-0.0155098
-0.0156022
-0.0156953
-0.0157884
-0.0158823
-0.0159763
-0.0160711
-0.0161659
-0.0162613
-0.0163569
-0.016453
-0.0165496
-0.0166464
-0.0167441
-0.0168415
-0.01694
-0.0170384
-0.0171379
-0.0172372
-0.0173374
-0.0174377
-0.0175384
-0.0176402
-0.0177418
-0.0178445
-0.0179465
-0.0180503
-0.0181538
-0.0182584
-0.0183627
-0.0184677
-0.0185737
-0.0186795
-0.0187867
-0.0188929
-0.0190013
-0.019109
-0.0192184
-0.0193273
-0.0194369
-0.0195479
-0.0196582
-0.0197706
-0.0198811
-0.0199947
-0.0201068
-0.0202208
-0.0203345
-0.0204487
-0.020565
-0.0206795
-0.0207973
-0.0209128
-0.0210316
-0.0211496
-0.0212678
-0.0213884
-0.0215063
-0.0216294
-0.021748
-0.0218713
-0.0219925
-0.0221148
-0.0222391
-0.0223601
-0.0224867
-0.0226088
-0.0227342
-0.0228593
-0.0229809
-0.0231094
-0.0232265
-0.0233532
-0.0234652
-0.0235803
-0.0236766
-0.0237627
0.00797302
0.00334554
-0.00382414
-0.00884909
-0.00990021
-0.00869358
-0.00722305
-0.00618992
-0.00558901
-0.00526666
-0.00511831
-0.00509647
-0.00516491
-0.00528269
-0.00541908
-0.00556184
-0.00570765
-0.00585291
-0.0059938
-0.00612931
-0.00626051
-0.00638838
-0.00651268
-0.00663271
-0.00674836
-0.00686094
-0.00697243
-0.00708408
-0.00719588
-0.00730714
-0.0074176
-0.0075277
-0.00763825
-0.00774964
-0.00786143
-0.00797272
-0.00808277
-0.00819133
-0.00829853
-0.00840421
-0.00850789
-0.00860899
-0.00870747
-0.00880358
-0.00889765
-0.00898983
-0.00908026
-0.00916895
-0.009256
-0.00934172
-0.00942658
-0.00951096
-0.00959481
-0.00967783
-0.00975988
-0.00984128
-0.0099224
-0.0100035
-0.0100842
-0.0101646
-0.0102445
-0.0103246
-0.0104047
-0.0104847
-0.0105646
-0.0106444
-0.0107243
-0.0108044
-0.0108843
-0.0109641
-0.0110437
-0.0111232
-0.011203
-0.0112829
-0.0113628
-0.0114426
-0.0115225
-0.0116024
-0.0116826
-0.0117629
-0.0118432
-0.0119234
-0.0120037
-0.0120841
-0.0121646
-0.0122449
-0.0123254
-0.012406
-0.0124869
-0.0125677
-0.0126486
-0.0127297
-0.0128112
-0.0128931
-0.0129752
-0.0130577
-0.0131405
-0.013224
-0.0133076
-0.0133919
-0.0134764
-0.0135614
-0.0136467
-0.0137323
-0.0138181
-0.0139044
-0.013991
-0.0140779
-0.014165
-0.0142524
-0.0143403
-0.0144283
-0.0145168
-0.0146054
-0.0146946
-0.0147837
-0.0148733
-0.014963
-0.0150534
-0.0151439
-0.0152348
-0.0153259
-0.0154174
-0.0155097
-0.0156021
-0.0156952
-0.0157883
-0.0158822
-0.0159762
-0.016071
-0.0161658
-0.0162612
-0.0163568
-0.0164529
-0.0165496
-0.0166463
-0.016744
-0.0168414
-0.01694
-0.0170383
-0.0171378
-0.0172372
-0.0173373
-0.0174376
-0.0175384
-0.0176401
-0.0177418
-0.0178445
-0.0179465
-0.0180503
-0.0181537
-0.0182584
-0.0183626
-0.0184677
-0.0185736
-0.0186795
-0.0187867
-0.0188929
-0.0190013
-0.019109
-0.0192184
-0.0193272
-0.0194369
-0.0195478
-0.0196582
-0.0197705
-0.019881
-0.0199946
-0.0201067
-0.0202207
-0.0203345
-0.0204486
-0.020565
-0.0206794
-0.0207973
-0.0209128
-0.0210316
-0.0211496
-0.0212678
-0.0213884
-0.0215063
-0.0216294
-0.0217479
-0.0218713
-0.0219924
-0.0221147
-0.0222391
-0.0223601
-0.0224867
-0.0226087
-0.0227342
-0.0228593
-0.0229809
-0.0231094
-0.0232264
-0.0233532
-0.0234652
-0.0235802
-0.0236766
-0.0237626
0.00721084
0.00317923
-0.00364319
-0.0085976
-0.00975951
-0.0086373
-0.0071924
-0.00616671
-0.00557094
-0.00525291
-0.0051078
-0.00508821
-0.00515817
-0.00527696
-0.00541405
-0.00555733
-0.00570357
-0.00584919
-0.0059904
-0.00612618
-0.00625763
-0.00638572
-0.00651022
-0.00663044
-0.00674627
-0.00685902
-0.00697064
-0.00708243
-0.00719433
-0.0073057
-0.00741624
-0.00752643
-0.00763705
-0.0077485
-0.00786036
-0.0079717
-0.00808179
-0.0081904
-0.00829764
-0.00840336
-0.00850708
-0.00860821
-0.00870672
-0.00880287
-0.00889696
-0.00898917
-0.00907963
-0.00916834
-0.00925541
-0.00934115
-0.00942603
-0.00951043
-0.0095943
-0.00967734
-0.0097594
-0.00984082
-0.00992195
-0.010003
-0.0100838
-0.0101642
-0.0102442
-0.0103242
-0.0104043
-0.0104844
-0.0105642
-0.0106441
-0.010724
-0.010804
-0.010884
-0.0109638
-0.0110434
-0.011123
-0.0112027
-0.0112826
-0.0113625
-0.0114424
-0.0115222
-0.0116022
-0.0116824
-0.0117626
-0.011843
-0.0119232
-0.0120035
-0.0120839
-0.0121644
-0.0122447
-0.0123252
-0.0124058
-0.0124867
-0.0125675
-0.0126484
-0.0127295
-0.0128111
-0.012893
-0.0129751
-0.0130576
-0.0131404
-0.0132238
-0.0133075
-0.0133918
-0.0134762
-0.0135613
-0.0136465
-0.0137322
-0.013818
-0.0139043
-0.0139909
-0.0140778
-0.0141649
-0.0142523
-0.0143402
-0.0144282
-0.0145167
-0.0146053
-0.0146945
-0.0147836
-0.0148732
-0.0149629
-0.0150533
-0.0151438
-0.0152347
-0.0153258
-0.0154173
-0.0155096
-0.015602
-0.0156951
-0.0157882
-0.0158822
-0.0159761
-0.0160709
-0.0161657
-0.0162611
-0.0163568
-0.0164528
-0.0165495
-0.0166463
-0.0167439
-0.0168414
-0.0169399
-0.0170382
-0.0171377
-0.0172371
-0.0173373
-0.0174376
-0.0175383
-0.0176401
-0.0177417
-0.0178444
-0.0179464
-0.0180502
-0.0181537
-0.0182583
-0.0183626
-0.0184676
-0.0185736
-0.0186794
-0.0187866
-0.0188928
-0.0190012
-0.0191089
-0.0192183
-0.0193272
-0.0194368
-0.0195478
-0.0196581
-0.0197705
-0.019881
-0.0199946
-0.0201067
-0.0202207
-0.0203345
-0.0204486
-0.0205649
-0.0206794
-0.0207972
-0.0209128
-0.0210315
-0.0211495
-0.0212677
-0.0213883
-0.0215063
-0.0216294
-0.0217479
-0.0218712
-0.0219924
-0.0221147
-0.0222391
-0.0223601
-0.0224867
-0.0226087
-0.0227342
-0.0228592
-0.0229809
-0.0231093
-0.0232264
-0.0233531
-0.0234652
-0.0235802
-0.0236766
-0.0237626
0.00648343
0.00303293
-0.00339145
-0.00826159
-0.00956123
-0.00855602
-0.0071482
-0.00613165
-0.00554272
-0.00523161
-0.00509224
-0.00507675
-0.00514933
-0.00526974
-0.00540787
-0.00555189
-0.00569869
-0.00584476
-0.00598635
-0.00612246
-0.0062542
-0.00638254
-0.00650727
-0.00662771
-0.00674376
-0.00685672
-0.00696855
-0.0070805
-0.00719255
-0.00730405
-0.00741472
-0.00752501
-0.00763574
-0.00774727
-0.0078592
-0.0079706
-0.00808076
-0.00818942
-0.0082967
-0.00840247
-0.00850623
-0.0086074
-0.00870595
-0.00880212
-0.00889625
-0.00898849
-0.00907897
-0.0091677
-0.0092548
-0.00934056
-0.00942546
-0.00950989
-0.00959377
-0.00967683
-0.00975892
-0.00984035
-0.00992149
-0.0100026
-0.0100834
-0.0101638
-0.0102438
-0.0103238
-0.0104039
-0.010484
-0.0105639
-0.0106438
-0.0107237
-0.0108037
-0.0108837
-0.0109635
-0.0110431
-0.0111227
-0.0112024
-0.0112823
-0.0113623
-0.0114421
-0.011522
-0.0116019
-0.0116822
-0.0117624
-0.0118427
-0.0119229
-0.0120033
-0.0120837
-0.0121642
-0.0122445
-0.012325
-0.0124056
-0.0124865
-0.0125673
-0.0126482
-0.0127294
-0.0128109
-0.0128928
-0.0129749
-0.0130574
-0.0131402
-0.0132237
-0.0133074
-0.0133916
-0.0134761
-0.0135612
-0.0136464
-0.013732
-0.0138179
-0.0139042
-0.0139907
-0.0140777
-0.0141648
-0.0142522
-0.0143401
-0.0144281
-0.0145166
-0.0146052
-0.0146944
-0.0147835
-0.0148731
-0.0149628
-0.0150532
-0.0151437
-0.0152346
-0.0153257
-0.0154173
-0.0155095
-0.0156019
-0.0156951
-0.0157881
-0.0158821
-0.015976
-0.0160709
-0.0161657
-0.0162611
-0.0163567
-0.0164528
-0.0165494
-0.0166462
-0.0167439
-0.0168413
-0.0169399
-0.0170382
-0.0171377
-0.017237
-0.0173372
-0.0174375
-0.0175383
-0.01764
-0.0177417
-0.0178443
-0.0179464
-0.0180502
-0.0181536
-0.0182583
-0.0183625
-0.0184676
-0.0185735
-0.0186794
-0.0187866
-0.0188928
-0.0190012
-0.0191089
-0.0192183
-0.0193271
-0.0194368
-0.0195478
-0.0196581
-0.0197704
-0.019881
-0.0199945
-0.0201067
-0.0202207
-0.0203344
-0.0204486
-0.0205649
-0.0206794
-0.0207972
-0.0209127
-0.0210315
-0.0211495
-0.0212677
-0.0213883
-0.0215062
-0.0216293
-0.0217479
-0.0218712
-0.0219924
-0.0221147
-0.022239
-0.0223601
-0.0224866
-0.0226087
-0.0227341
-0.0228592
-0.0229809
-0.0231093
-0.0232264
-0.0233531
-0.0234652
-0.0235802
-0.0236766
-0.0237626
0.00578205
0.00287363
-0.0031207
-0.00789374
-0.00933678
-0.0084629
-0.007097
-0.00608788
-0.00550507
-0.00520223
-0.0050706
-0.00506093
-0.00513731
-0.00526005
-0.00539969
-0.00554479
-0.00569236
-0.005839
-0.00598107
-0.00611761
-0.00624972
-0.00637835
-0.00650332
-0.00662401
-0.00674036
-0.00685363
-0.00696575
-0.00707795
-0.00719021
-0.00730189
-0.00741274
-0.0075232
-0.00763408
-0.00774574
-0.00785777
-0.00796926
-0.0080795
-0.00818824
-0.00829558
-0.00840141
-0.00850522
-0.00860644
-0.00870503
-0.00880125
-0.00889542
-0.00898769
-0.0090782
-0.00916697
-0.0092541
-0.00933989
-0.00942482
-0.00950927
-0.00959317
-0.00967625
-0.00975836
-0.00983981
-0.00992098
-0.0100021
-0.0100829
-0.0101633
-0.0102433
-0.0103234
-0.0104035
-0.0104836
-0.0105635
-0.0106434
-0.0107233
-0.0108034
-0.0108834
-0.0109632
-0.0110428
-0.0111224
-0.0112021
-0.011282
-0.011362
-0.0114418
-0.0115217
-0.0116017
-0.0116819
-0.0117622
-0.0118425
-0.0119227
-0.0120031
-0.0120835
-0.012164
-0.0122443
-0.0123248
-0.0124054
-0.0124863
-0.0125671
-0.012648
-0.0127292
-0.0128107
-0.0128927
-0.0129747
-0.0130572
-0.0131401
-0.0132235
-0.0133072
-0.0133915
-0.013476
-0.013561
-0.0136463
-0.0137319
-0.0138177
-0.013904
-0.0139906
-0.0140775
-0.0141647
-0.0142521
-0.0143399
-0.014428