/*--------------------------------*- C++ -*----------------------------------*\
| =========                 |                                                 |
| \\      /  F ield         | OpenFOAM: The Open Source CFD Toolbox           |
|  \\    /   O peration     | Version:  v2012                                 |
|   \\  /    A nd           | Website:  www.openfoam.com                      |
|    \\/     M anipulation  |                                                 |
\*---------------------------------------------------------------------------*/
FoamFile
{
    version     2.0;
    format      ascii;
    class       surfaceScalarField;
    location    "4.75";
    object      phi;
}
// * * * * * * * * * * * * * * * * * * * * * * * * * * * * * * * * * * * * * //

dimensions      [0 3 -1 0 0 0 0];
oriented        oriented;


internalField   nonuniform List<scalar> 
34900
(
1.17454e-06
-1.04887e-07
1.16909e-06
-8.26929e-08
1.178e-06
1.60456e-07
1.17444e-06
9.98857e-08
1.17581e-06
1.75659e-07
1.16667e-06
-6.58305e-09
1.16746e-06
1.18688e-07
1.15617e-06
-1.26115e-07
1.16093e-06
1.97814e-07
1.14569e-06
-2.02477e-07
1.15479e-06
2.31773e-07
1.13632e-06
-1.7326e-07
1.14707e-06
1.63221e-07
1.12895e-06
-9.03392e-08
1.13995e-06
1.04761e-07
1.12114e-06
-3.98699e-08
1.13233e-06
7.07743e-08
1.11333e-06
-1.95266e-09
1.11947e-06
6.35899e-08
1.64083e-08
1.07967e-06
1.23025e-06
-1.1088e-07
1.22556e-06
-7.79996e-08
1.23321e-06
1.52808e-07
1.23245e-06
1.00646e-07
1.23076e-06
1.77345e-07
1.2243e-06
-1.22268e-10
1.22176e-06
1.21233e-07
1.2131e-06
-1.17459e-07
1.2132e-06
1.97718e-07
1.202e-06
-1.91279e-07
1.20438e-06
2.29393e-07
1.19333e-06
-1.62216e-07
1.19426e-06
1.62301e-07
1.18879e-06
-8.48707e-08
1.18569e-06
1.07861e-07
1.18574e-06
-3.99217e-08
1.17592e-06
8.05977e-08
1.18341e-06
-9.44832e-09
1.15974e-06
8.72625e-08
1.2308e-08
1.16384e-06
1.28725e-06
-1.15347e-07
1.28609e-06
-7.68379e-08
1.28994e-06
1.48962e-07
1.29389e-06
9.669e-08
1.28814e-06
1.83091e-07
1.28606e-06
1.96661e-09
1.27898e-06
1.28304e-07
1.27436e-06
-1.12835e-07
1.2696e-06
2.02476e-07
1.26327e-06
-1.84951e-07
1.26023e-06
2.3244e-07
1.25598e-06
-1.5797e-07
1.25093e-06
1.67353e-07
1.25236e-06
-8.6302e-08
1.24517e-06
1.15045e-07
1.24897e-06
-4.37185e-08
1.24016e-06
8.94097e-08
1.24365e-06
-1.29411e-08
1.23221e-06
9.87069e-08
2.4928e-08
1.21959e-06
1.34588e-06
-1.17125e-07
1.34884e-06
-7.97972e-08
1.34843e-06
1.49369e-07
1.35694e-06
8.81845e-08
1.34834e-06
1.91686e-07
1.34999e-06
3.18683e-10
1.34021e-06
1.38089e-07
1.33822e-06
-1.10848e-07
1.3317e-06
2.08995e-07
1.32794e-06
-1.81192e-07
1.32415e-06
2.36237e-07
1.3221e-06
-1.55922e-07
1.31779e-06
1.71665e-07
1.3186e-06
-8.71158e-08
1.31504e-06
1.18607e-07
1.31502e-06
-4.36956e-08
1.31214e-06
9.22844e-08
1.30949e-06
-1.02919e-08
1.3051e-06
1.03101e-07
4.17825e-08
1.28824e-06
1.40713e-06
-1.15902e-07
1.41272e-06
-8.53871e-08
1.40923e-06
1.52864e-07
1.42018e-06
7.72269e-08
1.41173e-06
2.0014e-07
1.41497e-06
-2.91807e-09
1.40575e-06
1.47304e-07
1.40401e-06
-1.09108e-07
1.399e-06
2.14004e-07
1.39528e-06
-1.77466e-07
1.3937e-06
2.37812e-07
1.39092e-06
-1.53143e-07
1.38961e-06
1.72974e-07
1.38796e-06
-8.54609e-08
1.38773e-06
1.18835e-07
1.38489e-06
-4.08532e-08
1.38459e-06
9.25775e-08
1.37937e-06
-5.06292e-09
1.37702e-06
1.05443e-07
5.89215e-08
1.35988e-06
1.47224e-06
-1.12471e-07
1.47792e-06
-9.10642e-08
1.47333e-06
1.57454e-07
1.4841e-06
6.64599e-08
1.47852e-06
2.05715e-07
1.48153e-06
-5.92983e-09
1.47514e-06
1.53695e-07
1.47244e-06
-1.06404e-07
1.47005e-06
2.16394e-07
1.46555e-06
-1.72964e-07
1.46628e-06
2.37079e-07
1.4624e-06
-1.49264e-07
1.46332e-06
1.72059e-07
1.45997e-06
-8.21181e-08
1.46144e-06
1.17366e-07
1.45714e-06
-3.65463e-08
1.45804e-06
9.16723e-08
1.45115e-06
1.82354e-09
1.45031e-06
1.06292e-07
7.61663e-08
1.43306e-06
1.542e-06
-1.08254e-07
1.5457e-06
-9.47676e-08
1.5417e-06
1.61462e-07
1.5505e-06
5.76567e-08
1.54874e-06
2.0747e-07
1.55097e-06
-8.15834e-09
1.54775e-06
1.56916e-07
1.5443e-06
-1.02948e-07
1.54404e-06
2.16648e-07
1.53904e-06
-1.67965e-07
1.5413e-06
2.34826e-07
1.5367e-06
-1.44665e-07
1.53901e-06
1.69749e-07
1.53462e-06
-7.77352e-08
1.53723e-06
1.1476e-07
1.53179e-06
-3.11109e-08
1.53381e-06
8.96538e-08
1.52539e-06
1.02448e-08
1.52586e-06
1.05821e-07
9.30985e-08
1.50893e-06
1.61636e-06
-1.04488e-07
1.61744e-06
-9.58419e-08
1.61475e-06
1.64146e-07
1.62116e-06
5.12487e-08
1.62247e-06
2.06163e-07
1.62422e-06
-9.91051e-09
1.6234e-06
1.57731e-07
1.6199e-06
-9.94451e-08
1.62106e-06
2.15487e-07
1.61595e-06
-1.62856e-07
1.61925e-06
2.31525e-07
1.61415e-06
-1.39561e-07
1.61759e-06
1.66315e-07
1.61236e-06
-7.251e-08
1.61607e-06
1.11051e-07
1.60954e-06
-2.45781e-08
1.61268e-06
8.65112e-08
1.60292e-06
2.00009e-08
1.60431e-06
1.04432e-07
1.09104e-07
1.58831e-06
1.69478e-06
-1.01691e-07
1.69385e-06
-9.49195e-08
1.69248e-06
1.65525e-07
1.69697e-06
4.6752e-08
1.69995e-06
2.03186e-07
1.70163e-06
-1.15881e-08
1.70233e-06
1.57032e-07
1.69927e-06
-9.63886e-08
1.70143e-06
2.13329e-07
1.69637e-06
-1.578e-07
1.7006e-06
2.27292e-07
1.695e-06
-1.33954e-07
1.69956e-06
1.61752e-07
1.69348e-06
-6.64328e-08
1.69836e-06
1.06174e-07
1.69074e-06
-1.6959e-08
1.69492e-06
8.23309e-08
1.68414e-06
3.07793e-08
1.68596e-06
1.02614e-07
1.23598e-07
1.67147e-06
1.77675e-06
-9.97175e-08
1.77498e-06
-9.31473e-08
1.77462e-06
1.6588e-07
1.77795e-06
4.34279e-08
1.78147e-06
1.99659e-07
1.78321e-06
-1.33214e-08
1.78479e-06
1.55446e-07
1.78231e-06
-9.39056e-08
1.78528e-06
2.10355e-07
1.78027e-06
-1.52785e-07
1.78545e-06
2.22111e-07
1.77925e-06
-1.27749e-07
1.78501e-06
1.55985e-07
1.77801e-06
-5.9431e-08
1.78409e-06
1.00096e-07
1.77544e-06
-8.3059e-09
1.78045e-06
7.73154e-08
1.76908e-06
4.21551e-08
1.77077e-06
1.00921e-07
1.36067e-07
1.7583e-06
1.86218e-06
-9.81531e-08
1.86049e-06
-9.14567e-08
1.86092e-06
1.6545e-07
1.86367e-06
4.0677e-08
1.86717e-06
1.9616e-07
1.86888e-06
-1.50284e-08
1.87099e-06
1.53337e-07
1.86896e-06
-9.18779e-08
1.87267e-06
2.06648e-07
1.86758e-06
-1.47697e-07
1.87375e-06
2.15938e-07
1.86683e-06
-1.2083e-07
1.87386e-06
1.48961e-07
1.86587e-06
-5.14456e-08
1.87311e-06
9.28572e-08
1.86356e-06
1.24555e-09
1.86908e-06
7.17965e-08
1.85763e-06
5.36059e-08
1.85862e-06
9.99249e-08
1.46132e-07
1.84856e-06
1.95134e-06
-9.66499e-08
1.95016e-06
-9.02827e-08
1.95122e-06
1.64391e-07
1.95377e-06
3.81257e-08
1.95708e-06
1.92848e-07
1.95864e-06
-1.6581e-08
1.96108e-06
1.50893e-07
1.95928e-06
-9.00816e-08
1.96368e-06
2.02256e-07
1.95835e-06
-1.42371e-07
1.96554e-06
2.08744e-07
1.95781e-06
-1.13094e-07
1.96609e-06
1.40678e-07
1.95712e-06
-4.24744e-08
1.96538e-06
8.46026e-08
1.95518e-06
1.1443e-08
1.96074e-06
6.6231e-08
1.94979e-06
6.45605e-08
1.94959e-06
1.00129e-07
1.53627e-07
1.94209e-06
2.04458e-06
-9.50407e-08
2.04396e-06
-8.96647e-08
2.04552e-06
1.62832e-07
2.04807e-06
3.5576e-08
2.05125e-06
1.89665e-07
2.05257e-06
-1.7894e-08
2.05528e-06
1.4818e-07
2.05348e-06
-8.82809e-08
2.05854e-06
1.97197e-07
2.0528e-06
-1.36633e-07
2.06103e-06
2.00511e-07
2.05241e-06
-1.04475e-07
2.0619e-06
1.31188e-07
2.05202e-06
-3.25933e-08
2.06104e-06
7.55877e-08
2.05057e-06
2.19131e-08
2.05565e-06
6.11515e-08
2.04572e-06
7.44882e-08
2.04402e-06
1.01831e-07
1.58678e-07
2.03897e-06
2.14226e-06
-9.32975e-08
2.14205e-06
-8.94613e-08
2.144e-06
1.60888e-07
2.14663e-06
3.29428e-08
2.14981e-06
1.86484e-07
2.15085e-06
-1.89289e-08
2.15384e-06
1.45183e-07
2.15184e-06
-8.62738e-08
2.15758e-06
1.91455e-07
2.15127e-06
-1.30326e-07
2.16055e-06
1.91232e-07
2.15102e-06
-9.49441e-08
2.16161e-06
1.20599e-07
2.15098e-06
-2.1967e-08
2.16041e-06
6.61667e-08
2.15012e-06
3.21971e-08
2.15417e-06
5.71032e-08
2.14569e-06
8.29663e-08
2.14243e-06
1.05088e-07
1.61669e-07
2.13944e-06
2.24465e-06
-9.14551e-08
2.24468e-06
-8.95e-08
2.24692e-06
1.58651e-07
2.24966e-06
3.02095e-08
2.25297e-06
1.83169e-07
2.25371e-06
-1.96656e-08
2.25705e-06
1.41837e-07
2.25468e-06
-8.39017e-08
2.26115e-06
1.84988e-07
2.25414e-06
-1.23323e-07
2.26447e-06
1.80907e-07
2.25405e-06
-8.45221e-08
2.26557e-06
1.09072e-07
2.25446e-06
-1.08542e-08
2.26386e-06
5.67727e-08
2.25425e-06
4.1806e-08
2.25679e-06
5.4564e-08
2.25002e-06
8.97351e-08
2.24538e-06
1.09729e-07
1.6315e-07
2.2439e-06
2.35198e-06
-8.95634e-08
2.35212e-06
-8.96322e-08
2.3546e-06
1.56171e-07
2.3574e-06
2.74015e-08
2.36098e-06
1.79598e-07
2.36139e-06
-2.00763e-08
2.36517e-06
1.3805e-07
2.36231e-06
-8.10387e-08
2.36956e-06
1.77735e-07
2.36178e-06
-1.15539e-07
2.37313e-06
1.69558e-07
2.3619e-06
-7.32924e-08
2.37413e-06
9.6841e-08
2.36288e-06
3.90736e-10
2.37176e-06
4.78921e-08
2.36329e-06
5.02825e-08
2.36399e-06
5.38653e-08
2.35897e-06
9.47486e-08
2.35331e-06
1.15389e-07
1.63733e-07
2.35273e-06
2.4645e-06
-8.76692e-08
2.46461e-06
-8.97373e-08
2.46732e-06
1.53453e-07
2.47015e-06
2.4571e-08
2.4741e-06
1.75657e-07
2.47413e-06
-2.01121e-08
2.47847e-06
1.33716e-07
2.47501e-06
-7.75805e-08
2.48311e-06
1.69634e-07
2.4745e-06
-1.06933e-07
2.48681e-06
1.57247e-07
2.47494e-06
-6.14201e-08
2.48756e-06
8.42216e-08
2.47662e-06
1.1332e-08
2.48449e-06
4.00214e-08
2.47751e-06
5.72657e-08
2.47624e-06
5.5131e-08
2.47279e-06
9.81999e-08
2.46663e-06
1.21546e-07
1.64009e-07
2.46636e-06
2.58244e-06
-8.58139e-08
2.58241e-06
-8.97098e-08
2.5854e-06
1.50464e-07
2.58818e-06
2.17909e-08
2.59261e-06
1.71228e-07
2.5922e-06
-1.97021e-08
2.59719e-06
1.28724e-07
2.59305e-06
-7.34409e-08
2.60204e-06
1.60643e-07
2.59263e-06
-9.75241e-08
2.60578e-06
1.44101e-07
2.59352e-06
-4.91618e-08
2.60614e-06
7.16052e-08
2.59598e-06
2.14919e-08
2.60239e-06
3.36067e-08
2.59712e-06
6.25434e-08
2.594e-06
5.82427e-08
2.59171e-06
1.00494e-07
2.58564e-06
1.27618e-07
1.64463e-07
2.58518e-06
2.70605e-06
-8.40341e-08
2.70579e-06
-8.94491e-08
2.70912e-06
1.47132e-07
2.71176e-06
1.91507e-08
2.7168e-06
1.66192e-07
2.71585e-06
-1.87594e-08
2.72161e-06
1.22972e-07
2.71672e-06
-6.85593e-08
2.72661e-06
1.5076e-07
2.71649e-06
-8.74021e-08
2.73026e-06
1.30325e-07
2.71796e-06
-3.68647e-08
2.73014e-06
5.94275e-08
2.72122e-06
3.04161e-08
2.72584e-06
2.89841e-08
2.7223e-06
6.6085e-08
2.71767e-06
6.28688e-08
2.71602e-06
1.02147e-07
2.71055e-06
1.3309e-07
1.65402e-07
2.70961e-06
2.8356e-06
-8.23638e-08
2.835e-06
-8.8853e-08
2.83878e-06
1.43355e-07
2.84118e-06
1.67532e-08
2.84695e-06
1.60423e-07
2.84538e-06
-1.71948e-08
2.85197e-06
1.16382e-07
2.84633e-06
-6.29177e-08
2.85704e-06
1.40046e-07
2.84639e-06
-7.67479e-08
2.8605e-06
1.16215e-07
2.84858e-06
-2.49438e-08
2.85989e-06
4.81161e-08
2.85256e-06
3.77448e-08
2.85523e-06
2.63109e-08
2.85324e-06
6.80754e-08
2.84757e-06
6.85389e-08
2.84607e-06
1.03647e-07
2.84155e-06
1.37617e-07
1.66911e-07
2.84004e-06
2.97137e-06
-8.08342e-08
2.97033e-06
-8.7814e-08
2.97467e-06
1.39009e-07
2.97672e-06
1.47083e-08
2.98334e-06
1.53803e-07
2.98108e-06
-1.49353e-08
2.98855e-06
1.08915e-07
2.98219e-06
-5.65613e-08
2.99359e-06
1.28645e-07
2.98268e-06
-6.58383e-08
2.99675e-06
1.02145e-07
2.98565e-06
-1.38431e-08
2.99573e-06
3.80417e-08
2.9902e-06
4.32691e-08
2.99099e-06
2.55195e-08
2.99017e-06
6.88946e-08
2.98396e-06
7.47539e-08
2.98224e-06
1.05362e-07
2.97879e-06
1.41069e-07
1.68871e-07
2.97683e-06
3.11365e-06
-7.94747e-08
3.11205e-06
-8.62203e-08
3.11711e-06
1.33952e-07
3.11869e-06
1.31227e-08
3.12626e-06
1.46233e-07
3.12327e-06
-1.19435e-08
3.13159e-06
1.00595e-07
3.12465e-06
-4.96198e-08
3.1365e-06
1.16797e-07
3.1257e-06
-5.50403e-08
3.13931e-06
8.85303e-08
3.12946e-06
-3.98671e-09
3.13803e-06
2.94712e-08
3.13434e-06
4.69562e-08
3.13354e-06
2.63261e-08
3.1334e-06
6.90275e-08
3.12706e-06
8.10998e-08
3.12486e-06
1.0756e-07
3.12247e-06
1.43456e-07
1.71042e-07
3.1203e-06
3.26275e-06
-7.83118e-08
3.26049e-06
-8.39583e-08
3.26639e-06
1.28044e-07
3.26743e-06
1.20859e-08
3.27601e-06
1.37651e-07
3.27231e-06
-8.24178e-09
3.28137e-06
9.15315e-08
3.27408e-06
-4.23255e-08
3.28603e-06
1.04845e-07
3.27578e-06
-4.47902e-08
3.28852e-06
7.57944e-08
3.28025e-06
4.27995e-09
3.28719e-06
2.25336e-08
3.28524e-06
4.89065e-08
3.28327e-06
2.82978e-08
3.28337e-06
6.89202e-08
3.27708e-06
8.73974e-08
3.27407e-06
1.10564e-07
3.27285e-06
1.44683e-07
1.73282e-07
3.27061e-06
3.41899e-06
-7.73681e-08
3.41595e-06
-8.09211e-08
3.42284e-06
1.21153e-07
3.42328e-06
1.16508e-08
3.43287e-06
1.28055e-07
3.42857e-06
-3.93884e-09
3.43816e-06
8.19428e-08
3.43086e-06
-3.50266e-08
3.44248e-06
9.32226e-08
3.43326e-06
-3.55711e-08
3.44473e-06
6.43267e-08
3.43828e-06
1.07314e-08
3.44358e-06
1.72276e-08
3.44321e-06
4.92838e-08
3.44066e-06
3.08489e-08
3.44095e-06
6.8626e-08
3.43426e-06
9.40872e-08
3.42966e-06
1.15168e-07
3.42961e-06
1.44729e-07
1.75419e-07
3.42747e-06
3.5827e-06
-7.666e-08
3.5788e-06
-7.70182e-08
3.58677e-06
1.13186e-07
3.5866e-06
1.18131e-08
3.59714e-06
1.17522e-07
3.59244e-06
7.54179e-10
3.60223e-06
7.21567e-08
3.59536e-06
-2.81546e-08
3.6062e-06
8.23786e-08
3.59841e-06
-2.77746e-08
3.60839e-06
5.43426e-08
3.60375e-06
1.53676e-08
3.60764e-06
1.33448e-08
3.60857e-06
4.83481e-08
3.60625e-06
3.31751e-08
3.60943e-06
6.54414e-08
3.60891e-06
9.46035e-08
3.60182e-06
1.22264e-07
3.58688e-06
1.5967e-07
1.72319e-07
3.58998e-06
3.75424e-06
-7.61957e-08
3.74941e-06
-7.21875e-08
3.75849e-06
1.04107e-07
3.75782e-06
1.24866e-08
3.76911e-06
1.06229e-07
3.76435e-06
5.51466e-09
3.77392e-06
6.25838e-08
3.76792e-06
-2.21539e-08
3.77763e-06
7.26715e-08
3.77141e-06
-2.15552e-08
3.78002e-06
4.57329e-08
3.77689e-06
1.84967e-08
3.7799e-06
1.03308e-08
3.78198e-06
4.62752e-08
3.78065e-06
3.45021e-08
3.78741e-06
5.86834e-08
3.79268e-06
8.9331e-08
3.79997e-06
1.14975e-07
3.81313e-06
1.46514e-07
1.94987e-07
3.79046e-06
3.93396e-06
-7.59703e-08
3.92819e-06
-6.64134e-08
3.93833e-06
9.39689e-08
3.93734e-06
1.34699e-08
3.9491e-06
9.44725e-08
3.94471e-06
9.90594e-09
3.95361e-06
5.36872e-08
3.94887e-06
-1.74144e-08
3.95725e-06
6.42903e-08
3.9525e-06
-1.68039e-08
3.96007e-06
3.81625e-08
3.95807e-06
2.04922e-08
3.96079e-06
7.60967e-09
3.96503e-06
4.20378e-08
3.96367e-06
3.58649e-08
3.95785e-06
6.45015e-08
3.94722e-06
9.99584e-08
3.93958e-06
1.2262e-07
3.93119e-06
1.54896e-07
1.87762e-07
3.93842e-06
4.12224e-06
-7.59642e-08
4.11557e-06
-5.974e-08
4.1266e-06
8.29423e-08
4.12563e-06
1.4439e-08
4.13746e-06
8.2642e-08
4.13392e-06
1.34431e-08
4.14174e-06
4.5865e-08
4.13845e-06
-1.41212e-08
4.14562e-06
5.71196e-08
4.14192e-06
-1.31034e-08
4.14897e-06
3.11115e-08
4.1479e-06
2.15678e-08
4.1485e-06
7.00372e-09
4.14629e-06
4.42486e-08
4.13575e-06
4.64021e-08
4.133e-06
6.72507e-08
4.12991e-06
1.03058e-07
4.12404e-06
1.28486e-07
4.12144e-06
1.57498e-07
1.83379e-07
4.12582e-06
4.31948e-06
-7.61392e-08
4.31203e-06
-5.22877e-08
4.32363e-06
7.13414e-08
4.32313e-06
1.49382e-08
4.33458e-06
7.1193e-08
4.33237e-06
1.56531e-08
4.33887e-06
3.93649e-08
4.33694e-06
-1.21929e-08
4.34326e-06
5.08013e-08
4.34012e-06
-9.96682e-09
4.34631e-06
2.49202e-08
4.34254e-06
2.53344e-08
4.33759e-06
1.19561e-08
4.33529e-06
4.6552e-08
4.3287e-06
5.2994e-08
4.32509e-06
7.08614e-08
4.32242e-06
1.05725e-07
4.31861e-06
1.32298e-07
4.3186e-06
1.57508e-07
1.79875e-07
4.3221e-06
4.52607e-06
-7.64375e-08
4.51805e-06
-4.42679e-08
4.52975e-06
5.96468e-08
4.5303e-06
1.43876e-08
4.54089e-06
6.05969e-08
4.54039e-06
1.61603e-08
4.54555e-06
3.41973e-08
4.54463e-06
-1.12643e-08
4.55053e-06
4.48992e-08
4.54665e-06
-6.08849e-09
4.54955e-06
2.20144e-08
4.54411e-06
3.07784e-08
4.53885e-06
1.72123e-08
4.53668e-06
4.87256e-08
4.53102e-06
5.86581e-08
4.52713e-06
7.47502e-08
4.52491e-06
1.07941e-07
4.5225e-06
1.34706e-07
4.52407e-06
1.55947e-07
1.77358e-07
4.52658e-06
4.74246e-06
-7.67791e-08
4.73417e-06
-3.59821e-08
4.74534e-06
4.84766e-08
4.74756e-06
1.21642e-08
4.75694e-06
5.12189e-08
4.75826e-06
1.48452e-08
4.76244e-06
3.00196e-08
4.76183e-06
-1.06565e-08
4.76726e-06
3.94644e-08
4.76077e-06
4.02141e-10
4.7609e-06
2.18844e-08
4.75618e-06
3.5502e-08
4.75047e-06
2.29187e-08
4.74836e-06
5.08339e-08
4.74331e-06
6.37088e-08
4.73935e-06
7.87105e-08
4.73752e-06
1.09773e-07
4.73635e-06
1.35874e-07
4.7377e-06
1.54596e-07
1.74711e-07
4.74035e-06
4.96908e-06
-7.70615e-08
4.96092e-06
-2.7826e-08
4.97083e-06
3.85665e-08
4.97533e-06
7.67171e-09
4.98331e-06
4.32322e-08
4.98629e-06
1.18702e-08
4.99001e-06
2.62991e-08
4.9887e-06
-9.34379e-09
4.99244e-06
3.57194e-08
4.984e-06
8.84643e-09
4.98257e-06
2.33085e-08
4.97862e-06
3.94531e-08
4.97283e-06
2.87064e-08
4.97057e-06
5.30983e-08
4.96602e-06
6.82558e-08
4.96213e-06
8.2606e-08
4.9607e-06
1.11203e-07
4.96051e-06
1.36061e-07
4.96131e-06
1.53799e-07
1.71677e-07
4.96434e-06
5.20643e-06
-7.71724e-08
5.19885e-06
-2.02521e-08
5.20674e-06
3.0677e-08
5.21391e-06
5.08689e-10
5.22067e-06
3.64687e-08
5.22489e-06
7.64792e-09
5.22855e-06
2.26454e-08
5.22539e-06
-6.19166e-09
5.2261e-06
3.50116e-08
5.21773e-06
1.72127e-08
5.21517e-06
2.58717e-08
5.21197e-06
4.26546e-08
5.20629e-06
3.43843e-08
5.20376e-06
5.5629e-08
5.19964e-06
7.23772e-08
5.19588e-06
8.63612e-08
5.19498e-06
1.12106e-07
5.1953e-06
1.35741e-07
5.19607e-06
1.53026e-07
1.68494e-07
5.19926e-06
5.45501e-06
-7.69896e-08
5.4485e-06
-1.37442e-08
5.45376e-06
2.54175e-08
5.4635e-06
-9.23266e-09
5.46971e-06
3.02623e-08
5.47449e-06
2.85899e-09
5.4783e-06
1.8835e-08
5.47146e-06
6.54075e-10
5.47026e-06
3.62119e-08
5.46278e-06
2.46881e-08
5.45941e-06
2.9246e-08
5.45667e-06
4.53932e-08
5.45122e-06
3.98336e-08
5.44848e-06
5.83748e-08
5.44471e-06
7.61427e-08
5.44115e-06
8.99247e-08
5.44076e-06
1.12497e-07
5.44135e-06
1.35148e-07
5.44244e-06
1.51938e-07
1.6525e-07
5.44568e-06
5.71537e-06
-7.64061e-08
5.71039e-06
-8.76178e-09
5.71268e-06
2.31335e-08
5.72429e-06
-2.08485e-08
5.73074e-06
2.38128e-08
5.73437e-06
-7.64977e-10
5.73574e-06
1.74578e-08
5.7277e-06
8.69865e-09
5.72595e-06
3.79632e-08
5.71984e-06
3.07976e-08
5.71586e-06
3.32271e-08
5.71321e-06
4.8037e-08
5.70808e-06
4.49669e-08
5.70522e-06
6.12345e-08
5.7018e-06
7.95584e-08
5.69849e-06
9.32366e-08
5.69842e-06
1.12568e-07
5.69932e-06
1.34244e-07
5.70085e-06
1.50408e-07
1.61933e-07
5.70417e-06
5.98811e-06
-7.53279e-08
5.98511e-06
-5.75845e-09
5.98435e-06
2.38955e-08
5.9964e-06
-3.28959e-08
6.00222e-06
1.79915e-08
6.00184e-06
-3.85327e-10
6.0032e-06
1.60985e-08
5.99642e-06
1.54748e-08
5.99438e-06
4.00053e-08
5.98929e-06
3.58903e-08
5.98504e-06
3.7477e-08
5.9822e-06
5.08742e-08
5.97739e-06
4.97794e-08
5.9745e-06
6.41172e-08
5.97149e-06
8.25751e-08
5.96851e-06
9.62148e-08
5.96852e-06
1.12559e-07
5.96981e-06
1.32954e-07
5.97183e-06
1.48383e-07
1.58496e-07
5.97527e-06
6.27386e-06
-7.36955e-08
6.27314e-06
-5.04424e-09
6.26965e-06
2.73856e-08
6.28008e-06
-4.33282e-08
6.28529e-06
1.27854e-08
6.28336e-06
1.54528e-09
6.28483e-06
1.46323e-08
6.27869e-06
2.16084e-08
6.27601e-06
4.26829e-08
6.27166e-06
4.0248e-08
6.26746e-06
4.16778e-08
6.2643e-06
5.40295e-08
6.25972e-06
5.43561e-08
6.25689e-06
6.69508e-08
6.25433e-06
8.51385e-08
6.25179e-06
9.87492e-08
6.25172e-06
1.12634e-07
6.25338e-06
1.31289e-07
6.25592e-06
1.45844e-07
1.54866e-07
6.25955e-06
6.57324e-06
-7.1471e-08
6.57494e-06
-6.74372e-09
6.56928e-06
3.30491e-08
6.57685e-06
-5.09017e-08
6.58263e-06
7.0095e-09
6.57943e-06
4.74203e-09
6.58046e-06
1.36099e-08
6.57487e-06
2.71945e-08
6.57144e-06
4.61167e-08
6.56756e-06
4.41247e-08
6.56363e-06
4.56074e-08
6.56021e-06
5.74517e-08
6.55574e-06
5.88275e-08
6.55298e-06
6.97084e-08
6.55089e-06
8.72275e-08
6.54892e-06
1.00721e-07
6.54873e-06
1.12818e-07
6.55066e-06
1.29359e-07
6.55369e-06
1.42812e-07
1.50958e-07
6.5576e-06
6.88696e-06
-6.86455e-08
6.89094e-06
-1.07151e-08
6.88388e-06
4.01018e-08
6.88836e-06
-5.5383e-08
6.89447e-06
9.01079e-10
6.89019e-06
9.02814e-09
6.89036e-06
1.34397e-08
6.88549e-06
3.20628e-08
6.88135e-06
5.02574e-08
6.87765e-06
4.78258e-08
6.87412e-06
4.91341e-08
6.87058e-06
6.09897e-08
6.86612e-06
6.32879e-08
6.86341e-06
7.24161e-08
6.86178e-06
8.88582e-08
6.86048e-06
1.02022e-07
6.86027e-06
1.13028e-07
6.86234e-06
1.27292e-07
6.86578e-06
1.39368e-07
1.46705e-07
6.87004e-06
7.21573e-06
-6.52417e-08
7.2216e-06
-1.65808e-08
7.21412e-06
4.75765e-08
7.21541e-06
-5.66742e-08
7.22165e-06
-5.33405e-09
7.21625e-06
1.44236e-08
7.21511e-06
1.45832e-08
7.2111e-06
3.6072e-08
7.20647e-06
5.48849e-08
7.20264e-06
5.16556e-08
7.19953e-06
5.22496e-08
7.1961e-06
6.4422e-08
7.19162e-06
6.7762e-08
7.1889e-06
7.51399e-08
7.1877e-06
9.00538e-08
7.1871e-06
1.02621e-07
7.18703e-06
1.13099e-07
7.18915e-06
1.25173e-07
7.19288e-06
1.35635e-07
1.42098e-07
7.19749e-06
7.56029e-06
-6.13072e-08
7.56768e-06
-2.39677e-08
7.56054e-06
5.47162e-08
7.55894e-06
-5.5079e-08
7.56506e-06
-1.14538e-08
7.55833e-06
2.11556e-08
7.55539e-06
1.75248e-08
7.55234e-06
3.91243e-08
7.54755e-06
5.96722e-08
7.54332e-06
5.58856e-08
7.54052e-06
5.50497e-08
7.53742e-06
6.75256e-08
7.533e-06
7.218e-08
7.53017e-06
7.79684e-08
7.52939e-06
9.08322e-08
7.52942e-06
1.02597e-07
7.52969e-06
1.12821e-07
7.53185e-06
1.23016e-07
7.53575e-06
1.31738e-07
1.37186e-07
7.54066e-06
7.92141e-06
-5.69104e-08
7.9299e-06
-3.24552e-08
7.92373e-06
6.08867e-08
7.92035e-06
-5.16963e-08
7.92566e-06
-1.67681e-08
7.91706e-06
2.97565e-08
7.91201e-06
2.25798e-08
7.90988e-06
4.12501e-08
7.90532e-06
6.42305e-08
7.90052e-06
6.06863e-08
7.8978e-06
5.77751e-08
7.89522e-06
7.01059e-08
7.89101e-06
7.63862e-08
7.88803e-06
8.09525e-08
7.88759e-06
9.12712e-08
7.88815e-06
1.02039e-07
7.88895e-06
1.12018e-07
7.89121e-06
1.20756e-07
7.89518e-06
1.27765e-07
1.32057e-07
7.90031e-06
8.29989e-06
-5.21209e-08
8.30911e-06
-4.16745e-08
8.30685e-06
6.3152e-08
8.30234e-06
-4.71931e-08
8.30426e-06
-1.86833e-08
8.29307e-06
4.09445e-08
8.28589e-06
2.97624e-08
8.2845e-06
4.26347e-08
8.28052e-06
6.82117e-08
8.27513e-06
6.60793e-08
8.27218e-06
6.07194e-08
8.2702e-06
7.20945e-08
8.26642e-06
8.01569e-08
8.26332e-06
8.40579e-08
8.26307e-06
9.15238e-08
8.26408e-06
1.01024e-07
8.2655e-06
1.10603e-07
8.26798e-06
1.18271e-07
8.272e-06
1.23748e-07
1.26801e-07
8.27725e-06
8.69658e-06
-4.70376e-08
8.70758e-06
-5.2679e-08
8.71146e-06
5.92737e-08
8.70789e-06
-4.3617e-08
8.70053e-06
-1.1325e-08
8.68713e-06
5.43393e-08
8.67815e-06
3.8747e-08
8.67706e-06
4.37221e-08
8.67384e-06
7.14326e-08
8.668e-06
7.19196e-08
8.66458e-06
6.41402e-08
8.66308e-06
7.35923e-08
8.66e-06
8.32422e-08
8.65692e-06
8.71375e-08
8.65671e-06
9.17283e-08
8.65806e-06
9.96777e-08
8.66011e-06
1.08551e-07
8.66295e-06
1.15428e-07
8.66705e-06
1.19654e-07
1.21499e-07
8.67235e-06
9.11228e-06
-4.1701e-08
9.13084e-06
-7.12337e-08
9.13964e-06
5.04743e-08
9.12145e-06
-2.54305e-08
9.11255e-06
-2.42954e-09
9.10036e-06
6.653e-08
9.08993e-06
4.91795e-08
9.08835e-06
4.53009e-08
9.08602e-06
7.37701e-08
9.08003e-06
7.79041e-08
9.07595e-06
6.82185e-08
9.07473e-06
7.48194e-08
9.0725e-06
8.54659e-08
9.0697e-06
8.99415e-08
9.06943e-06
9.19962e-08
9.07097e-06
9.81386e-08
9.07362e-06
1.05898e-07
9.07694e-06
1.1211e-07
9.08119e-06
1.154e-07
1.16186e-07
9.08651e-06
9.5477e-06
-3.59432e-08
9.55962e-06
-8.31523e-08
9.5514e-06
5.86905e-08
9.5407e-06
-1.47211e-08
9.54248e-06
-4.21074e-09
9.53406e-06
7.49467e-08
9.52226e-06
6.09825e-08
9.51934e-06
4.82224e-08
9.51785e-06
7.52597e-08
9.51207e-06
8.36773e-08
9.5073e-06
7.29927e-08
9.50605e-06
7.60674e-08
9.50474e-06
8.67725e-08
9.50256e-06
9.21283e-08
9.50215e-06
9.24065e-08
9.5038e-06
9.64864e-08
9.50695e-06
1.02744e-07
9.51081e-06
1.08257e-07
9.51532e-06
1.1089e-07
1.10829e-07
9.52067e-06
1.00038e-05
-2.96262e-08
9.99668e-06
-7.60153e-08
9.99546e-06
5.99113e-08
9.9898e-06
-9.05956e-09
9.99335e-06
-7.76438e-09
9.9884e-06
7.98992e-08
9.97584e-06
7.35379e-08
9.9712e-06
5.28681e-08
9.97026e-06
7.61951e-08
9.96509e-06
8.88546e-08
9.95968e-06
7.83962e-08
9.95813e-06
7.76202e-08
9.95764e-06
8.72664e-08
9.95629e-06
9.3469e-08
9.95584e-06
9.28605e-08
9.95754e-06
9.47872e-08
9.96105e-06
9.92327e-08
9.96543e-06
1.03873e-07
9.97029e-06
1.06038e-07
1.05354e-07
9.97576e-06
1.0482e-05
-2.29445e-08
1.04667e-05
-6.07342e-08
1.04736e-05
5.29479e-08
1.04656e-05
-9.80881e-10
1.04659e-05
-8.05425e-09
1.04637e-05
8.20885e-08
1.04514e-05
8.57968e-08
1.04449e-05
5.93921e-08
1.04441e-05
7.70127e-08
1.04398e-05
9.3142e-08
1.04339e-05
8.42209e-08
1.04319e-05
7.96806e-08
1.0432e-05
8.71426e-08
1.04316e-05
9.38974e-08
1.04314e-05
9.30613e-08
1.04331e-05
9.30573e-08
1.04368e-05
9.5504e-08
1.04417e-05
9.90172e-08
1.0447e-05
1.00761e-07
9.9702e-08
1.04526e-05
1.09842e-05
-1.71246e-08
1.1012e-05
-8.85582e-08
1.09993e-05
6.56905e-08
1.09661e-05
3.21522e-08
1.09604e-05
-2.3177e-09
1.0961e-05
8.14724e-08
1.09498e-05
9.70273e-08
1.09415e-05
6.7719e-08
1.09404e-05
7.81247e-08
1.09371e-05
9.64125e-08
1.09312e-05
9.00963e-08
1.09285e-05
8.23857e-08
1.09289e-05
8.6726e-08
1.09294e-05
9.3458e-08
1.09296e-05
9.27859e-08
1.09314e-05
9.12459e-08
1.09353e-05
9.1665e-08
1.09405e-05
9.38092e-08
1.09462e-05
9.50388e-08
9.38053e-08
1.09521e-05
1.15087e-05
-1.04111e-08
1.14939e-05
-7.37918e-08
1.15012e-05
5.83269e-08
1.14888e-05
4.46444e-08
1.14822e-05
4.21884e-09
1.14826e-05
8.11195e-08
1.14723e-05
1.07254e-07
1.14624e-05
7.76803e-08
1.14604e-05
8.00979e-08
1.14581e-05
9.87673e-08
1.14526e-05
9.55721e-08
1.14493e-05
8.56926e-08
1.14496e-05
8.63582e-08
1.1451e-05
9.21288e-08
1.14518e-05
9.19307e-08
1.14539e-05
8.91664e-08
1.14578e-05
8.77219e-08
1.14633e-05
8.83534e-08
1.14694e-05
8.89261e-08
8.75456e-08
1.14757e-05
1.20596e-05
-4.2023e-09
1.20484e-05
-6.25323e-08
1.2047e-05
5.97114e-08
1.20361e-05
5.54999e-08
1.20288e-05
1.15556e-08
1.20289e-05
8.10088e-08
1.20198e-05
1.16364e-07
1.20086e-05
8.88847e-08
1.20053e-05
8.33283e-08
1.20037e-05
1.00376e-07
1.1999e-05
1.00304e-07
1.19953e-05
8.9436e-08
1.19953e-05
8.63466e-08
1.19973e-05
9.01382e-08
1.19988e-05
9.04144e-08
1.20012e-05
8.67102e-08
1.20053e-05
8.36337e-08
1.20109e-05
8.27389e-08
1.20174e-05
8.24975e-08
8.08972e-08
1.2024e-05
1.26366e-05
1.81175e-09
1.26218e-05
-4.77283e-08
1.26231e-05
5.83475e-08
1.26111e-05
6.75159e-08
1.26011e-05
2.15499e-08
1.2601e-05
8.11495e-08
1.25932e-05
1.2416e-07
1.25811e-05
1.00962e-07
1.25762e-05
8.8194e-08
1.2575e-05
1.01613e-07
1.25713e-05
1.04053e-07
1.25673e-05
9.33514e-08
1.25669e-05
8.68041e-08
1.25692e-05
8.78521e-08
1.25716e-05
8.79785e-08
1.25745e-05
8.38625e-08
1.25788e-05
7.92473e-08
1.25846e-05
7.69821e-08
1.25913e-05
7.57965e-08
7.38973e-08
1.25983e-05
1.32414e-05
7.32308e-09
1.32362e-05
-4.25074e-08
1.32325e-05
6.2028e-08
1.32145e-05
8.55206e-08
1.32008e-05
3.52194e-08
1.32001e-05
8.18669e-08
1.31938e-05
1.30513e-07
1.31813e-05
1.1342e-07
1.31746e-05
9.4865e-08
1.31733e-05
1.02931e-07
1.31706e-05
1.06798e-07
1.31668e-05
9.70972e-08
1.31659e-05
8.77757e-08
1.31681e-05
8.5585e-08
1.31714e-05
8.46706e-08
1.31748e-05
8.04857e-08
1.31796e-05
7.44844e-08
1.31855e-05
7.11068e-08
1.31924e-05
6.88643e-08
6.6571e-08
1.31997e-05
1.38751e-05
1.23444e-08
1.38712e-05
-3.85364e-08
1.38656e-05
6.76408e-08
1.3847e-05
1.04129e-07
1.38303e-05
5.18314e-08
1.38279e-05
8.43426e-08
1.38228e-05
1.35608e-07
1.38105e-05
1.25706e-07
1.38021e-05
1.03288e-07
1.38001e-05
1.04931e-07
1.37981e-05
1.08769e-07
1.37948e-05
1.00385e-07
1.37934e-05
8.91394e-08
1.37955e-05
8.35257e-08
1.37994e-05
8.07825e-08
1.38035e-05
7.63271e-08
1.38088e-05
6.9263e-08
1.38147e-05
6.51232e-08
1.3822e-05
6.16477e-08
5.88883e-08
1.38296e-05
1.45389e-05
1.71578e-08
1.4517e-05
-1.66839e-08
1.45202e-05
6.44298e-08
1.45097e-05
1.14604e-07
1.4491e-05
7.05669e-08
1.44857e-05
8.96168e-08
1.44815e-05
1.39871e-07
1.44698e-05
1.37408e-07
1.44598e-05
1.13201e-07
1.44566e-05
1.08135e-07
1.44551e-05
1.10329e-07
1.44524e-05
1.03024e-07
1.4451e-05
9.06058e-08
1.44527e-05
8.1777e-08
1.44569e-05
7.66276e-08
1.44619e-05
7.12988e-08
1.44676e-05
6.35272e-08
1.44738e-05
5.8925e-08
1.44814e-05
5.41095e-08
5.0782e-08
1.44895e-05
1.52348e-05
2.12358e-08
1.52183e-05
-1.73058e-10
1.52145e-05
6.82556e-08
1.52032e-05
1.25905e-07
1.51835e-05
9.0213e-08
1.51751e-05
9.79959e-08
1.51711e-05
1.43911e-07
1.51603e-05
1.48219e-07
1.51493e-05
1.24215e-07
1.51445e-05
1.12878e-07
1.51429e-05
1.11959e-07
1.51409e-05
1.05049e-07
1.51396e-05
9.19265e-08
1.5141e-05
8.03567e-08
1.51452e-05
7.24341e-08
1.51509e-05
6.55329e-08
1.5157e-05
5.74757e-08
1.5164e-05
5.18709e-08
1.51716e-05
4.65238e-08
4.20251e-08
1.51804e-05
1.5964e-05
2.459e-08
1.59521e-05
1.16563e-08
1.59408e-05
7.9563e-08
1.59299e-05
1.36818e-07
1.59094e-05
1.10752e-07
1.58979e-05
1.09464e-07
1.58933e-05
1.48518e-07
1.58834e-05
1.58095e-07
1.58717e-05
1.35967e-07
1.58652e-05
1.19378e-07
1.5863e-05
1.14127e-07
1.58614e-05
1.06658e-07
1.58604e-05
9.29795e-08
1.58616e-05
7.9148e-08
1.58657e-05
6.8335e-08
1.58718e-05
5.93753e-08
1.58784e-05
5.09123e-08
1.58864e-05
4.38924e-08
1.58946e-05
3.83172e-08
3.31823e-08
1.59034e-05
1.67263e-05
2.88538e-08
1.66931e-05
4.48503e-08
1.66978e-05
7.49344e-08
1.66919e-05
1.42741e-07
1.667e-05
1.32628e-07
1.66556e-05
1.23797e-07
1.66498e-05
1.54376e-07
1.66406e-05
1.67269e-07
1.66285e-05
1.48114e-07
1.66202e-05
1.2764e-07
1.6617e-05
1.17306e-07
1.66155e-05
1.08137e-07
1.66147e-05
9.38114e-08
1.66159e-05
7.80048e-08
1.66197e-05
6.4441e-08
1.66259e-05
5.31781e-08
1.66334e-05
4.34804e-08
1.66419e-05
3.53347e-08
1.66513e-05
2.89536e-08
2.41741e-08
1.66603e-05
1.75283e-05
3.09611e-08
1.75402e-05
3.29146e-08
1.75129e-05
1.02176e-07
1.74885e-05
1.67226e-07
1.74664e-05
1.54694e-07
1.74499e-05
1.40338e-07
1.74422e-05
1.62069e-07
1.74333e-05
1.76155e-07
1.74209e-05
1.60534e-07
1.7411e-05
1.37512e-07
1.74063e-05
1.22029e-07
1.74045e-05
1.09877e-07
1.74037e-05
9.46032e-08
1.74048e-05
7.69073e-08
1.74086e-05
6.07042e-08
1.74148e-05
4.69136e-08
1.74229e-05
3.5366e-08
1.74323e-05
2.59899e-08
1.74424e-05
1.88551e-08
1.37682e-08
1.74528e-05
1.83641e-05
3.52271e-08
1.83301e-05
6.68765e-08
1.83316e-05
1.00674e-07
1.8324e-05
1.74813e-07
1.83021e-05
1.76583e-07
1.82829e-05
1.59614e-07
1.82728e-05
1.7213e-07
1.82636e-05
1.85381e-07
1.82509e-05
1.73222e-07
1.82395e-05
1.48909e-07
1.82329e-05
1.28631e-07
1.82304e-05
1.12328e-07
1.82294e-05
9.56701e-08
1.82303e-05
7.59405e-08
1.8234e-05
5.70954e-08
1.82403e-05
4.056e-08
1.82489e-05
2.67615e-08
1.82591e-05
1.57529e-08
1.82703e-05
7.68383e-09
2.05527e-09
1.8282e-05
1.92431e-05
3.84721e-08
1.92342e-05
7.58529e-08
1.92069e-05
1.2796e-07
1.91979e-05
1.83807e-07
1.91769e-05
1.97538e-07
1.91559e-05
1.80615e-07
1.91432e-05
1.84894e-07
1.91329e-05
1.95655e-07
1.91198e-05
1.86359e-07
1.91069e-05
1.61772e-07
1.90982e-05
1.37329e-07
1.90943e-05
1.16222e-07
1.90926e-05
9.73838e-08