/*--------------------------------*- C++ -*----------------------------------*\
| =========                 |                                                 |
| \\      /  F ield         | OpenFOAM: The Open Source CFD Toolbox           |
|  \\    /   O peration     | Version:  v2012                                 |
|   \\  /    A nd           | Website:  www.openfoam.com                      |
|    \\/     M anipulation  |                                                 |
\*---------------------------------------------------------------------------*/
FoamFile
{
    version     2.0;
    format      ascii;
    class       volVectorField;
    location    "4.75";
    object      U;
}
// * * * * * * * * * * * * * * * * * * * * * * * * * * * * * * * * * * * * * //

dimensions      [0 1 -1 0 0 0 0];


internalField   nonuniform List<vector> 
17600
(
(0.822801 -0.00101574 0)
(1.17371 -0.000938847 0)
(0.840258 0.00197125 0)
(1.16244 0.00127319 0)
(0.861603 0.00248707 0)
(1.13894 -0.00018832 0)
(0.869508 0.00198478 0)
(1.11795 -0.00241246 0)
(0.872332 0.00397072 0)
(1.10371 -0.00454735 0)
(0.869088 0.00555975 0)
(1.09588 -0.00467325 0)
(0.861544 0.00467648 0)
(1.08937 -0.00298711 0)
(0.854708 0.00357988 0)
(1.08462 -0.00170284 0)
(0.84452 0.00283393 0)
(1.08211 -0.000276775 0)
(0.828602 0.0027653 0)
(1.08028 0.000422127 0)
(0.834107 -0.00108183 0)
(1.1624 -0.00087714 0)
(0.852239 0.00187325 0)
(1.14945 0.00129889 0)
(0.876213 0.00248087 0)
(1.12368 -5.39287e-05 0)
(0.886492 0.00199229 0)
(1.10001 -0.00221799 0)
(0.891295 0.00390555 0)
(1.08153 -0.00424344 0)
(0.891375 0.00540222 0)
(1.06719 -0.00428828 0)
(0.891387 0.00452166 0)
(1.05109 -0.00267819 0)
(0.898383 0.00351991 0)
(1.03184 -0.00151901 0)
(0.910302 0.00305896 0)
(1.00603 -0.000390937 0)
(0.928443 0.00394332 0)
(0.966879 -0.000203993 0)
(0.855836 -0.00114544 0)
(1.13977 -0.000834105 0)
(0.875882 0.00178249 0)
(1.1244 0.00129268 0)
(0.903061 0.00252892 0)
(1.09681 3.27345e-05 0)
(0.916018 0.00206802 0)
(1.07111 -0.00207671 0)
(0.92279 0.00393526 0)
(1.05014 -0.00403312 0)
(0.926033 0.00537465 0)
(1.03262 -0.00406841 0)
(0.931701 0.00453745 0)
(1.01318 -0.00259181 0)
(0.943534 0.00365079 0)
(0.994229 -0.00153191 0)
(0.955006 0.0033589 0)
(0.976382 -0.000534307 0)
(0.962409 0.00440274 0)
(0.960117 0.000698507 0)
(0.885019 -0.00117806 0)
(1.10885 -0.000845371 0)
(0.906042 0.00176055 0)
(1.09218 0.00121229 0)
(0.934423 0.00263682 0)
(1.066 2.99152e-05 0)
(0.947848 0.00221913 0)
(1.04196 -0.00202942 0)
(0.953815 0.00406306 0)
(1.02357 -0.00394524 0)
(0.956678 0.00548264 0)
(1.00957 -0.00401242 0)
(0.961752 0.0047031 0)
(0.995394 -0.0026352 0)
(0.969232 0.00384925 0)
(0.98503 -0.00156832 0)
(0.972889 0.00355895 0)
(0.977489 -0.000480137 0)
(0.971775 0.00462656 0)
(0.970411 0.00169958 0)
(0.916778 -0.00117677 0)
(1.0755 -0.000900946 0)
(0.935799 0.00179206 0)
(1.05986 0.00107522 0)
(0.961957 0.00276729 0)
(1.03922 -1.93349e-05 0)
(0.973069 0.00239118 0)
(1.02078 -0.00200737 0)
(0.975805 0.0041943 0)
(1.00824 -0.00387392 0)
(0.976137 0.00557197 0)
(1.00006 -0.00395778 0)
(0.978359 0.00481553 0)
(0.991883 -0.00262617 0)
(0.981355 0.00394472 0)
(0.986888 -0.00152599 0)
(0.981156 0.00364457 0)
(0.982555 -0.000322056 0)
(0.97823 0.00474092 0)
(0.976577 0.00265068 0)
(0.945923 -0.0011482 0)
(1.04596 -0.000971625 0)
(0.959839 0.00184685 0)
(1.03356 0.000924587 0)
(0.980999 0.00287284 0)
(1.02079 -7.2099e-05 0)
(0.988618 0.00252779 0)
(1.00931 -0.00196584 0)
(0.988092 0.00427198 0)
(1.00228 -0.00377887 0)
(0.986393 0.00558398 0)
(0.998205 -0.00386327 0)
(0.986774 0.0048196 0)
(0.993296 -0.00254559 0)
(0.987743 0.00392793 0)
(0.990166 -0.00141403 0)
(0.986489 0.00364568 0)
(0.986505 -9.23336e-05 0)
(0.983297 0.00480873 0)
(0.981015 0.00355342 0)
(0.968816 -0.00110598 0)
(1.02418 -0.00102731 0)
(0.976218 0.00190148 0)
(1.01599 0.000794429 0)
(0.99155 0.00292499 0)
(1.0105 -0.000110927 0)
(0.996371 0.00260738 0)
(1.00476 -0.00190405 0)
(0.994158 0.00429578 0)
(1.00122 -0.0036709 0)
(0.991778 0.00554288 0)
(0.999174 -0.00375004 0)
(0.99157 0.00476136 0)
(0.995672 -0.00242348 0)
(0.991939 0.003845 0)
(0.993184 -0.00123767 0)
(0.990444 0.00357542 0)
(0.989852 0.000229621 0)
(0.987197 0.0048108 0)
(0.984892 0.00443603 0)
(0.9843 -0.00106457 0)
(1.01075 -0.00105226 0)
(0.985934 0.00194226 0)
(1.00635 0.000697315 0)
(0.99635 0.00292456 0)
(1.00569 -0.000139094 0)
(0.999749 0.00263759 0)
(1.00359 -0.00183736 0)
(0.997405 0.00428386 0)
(1.00194 -0.00356167 0)
(0.995237 0.00547479 0)
(1.00086 -0.00362914 0)
(0.995007 0.00467766 0)
(0.998083 -0.00227972 0)
(0.995273 0.00373032 0)
(0.995973 -0.00101082 0)
(0.993751 0.00345062 0)
(0.992917 0.000631005 0)
(0.990574 0.00474998 0)
(0.988408 0.00527107 0)
(0.993335 -0.00103238 0)
(1.00376 -0.00104892 0)
(0.991266 0.00196587 0)
(1.00211 0.000629541 0)
(0.998375 0.00289013 0)
(1.00372 -0.000164699 0)
(1.00132 0.00263518 0)
(1.00359 -0.00177732 0)
(0.999655 0.00424911 0)
(1.003 -0.00345366 0)
(0.998014 0.00538597 0)
(1.00254 -0.00349624 0)
(0.997895 0.00456941 0)
(1.00031 -0.00211424 0)
(0.998177 0.00359012 0)
(0.998523 -0.000748627 0)
(0.996698 0.00328652 0)
(0.995721 0.00109113 0)
(0.993656 0.00465103 0)
(0.991624 0.00602338 0)
(0.997896 -0.00101003 0)
(1.0006 -0.00103014 0)
(0.994256 0.00197526 0)
(1.00076 0.000581286 0)
(0.999481 0.00284142 0)
(1.00295 -0.000191499 0)
(1.00231 0.00261382 0)
(1.0038 -0.00172811 0)
(1.00148 0.00419741 0)
(1.00392 -0.00334682 0)
(1.00038 0.00527605 0)
(1.00396 -0.0033477 0)
(1.00035 0.0044283 0)
(1.0022 -0.00191875 0)
(1.00066 0.0034099 0)
(1.00072 -0.000449628 0)
(0.999235 0.00308886 0)
(0.998158 0.00158717 0)
(0.996351 0.00454961 0)
(0.994461 0.00666957 0)
(0.999905 -0.000993608 0)
(0.999273 -0.00100889 0)
(0.996103 0.00197412 0)
(1.00065 0.000543437 0)
(1.00037 0.00279071 0)
(1.00265 -0.000218793 0)
(1.00306 0.00258176 0)
(1.00396 -0.00168871 0)
(1.00292 0.00413112 0)
(1.00456 -0.00323987 0)
(1.00226 0.00514444 0)
(1.00501 -0.00318227 0)
(1.00228 0.00425119 0)
(1.00366 -0.00168773 0)
(1.00259 0.0031802 0)
(1.00243 -0.00011525 0)
(1.00123 0.0028635 0)
(1.0001 0.00209301 0)
(0.99852 0.0044833 0)
(0.996786 0.00719236 0)
(1.00069 -0.000978871 0)
(0.99867 -0.000992609 0)
(0.997325 0.00196479 0)
(1.00092 0.000509814 0)
(1.00115 0.00274266 0)
(1.00254 -0.000244449 0)
(1.00361 0.00254328 0)
(1.00402 -0.00165544 0)
(1.00393 0.0040511 0)
(1.00495 -0.00312937 0)
(1.00359 0.0049888 0)
(1.00571 -0.00299559 0)
(1.00363 0.00403583 0)
(1.00467 -0.00142285 0)
(1.00395 0.0029131 0)
(1.00365 0.00024176 0)
(1.00266 0.00262152 0)
(1.00151 0.00257891 0)
(1.00012 0.00448354 0)
(0.998551 0.00758115 0)
(1.00099 -0.000963366 0)
(0.998347 -0.000983146 0)
(0.998124 0.00194888 0)
(1.00123 0.000476956 0)
(1.00175 0.00269742 0)
(1.00251 -0.000266802 0)
(1.00396 0.00250026 0)
(1.00404 -0.00162416 0)
(1.00453 0.00395815 0)
(1.00517 -0.00301164 0)
(1.0044 0.00480773 0)
(1.00612 -0.00278458 0)
(1.00447 0.00378268 0)
(1.00529 -0.0011279 0)
(1.00481 0.00261651 0)
(1.00441 0.000620779 0)
(1.00359 0.00239253 0)
(1.00244 0.00301405 0)
(1.00122 0.00456709 0)
(0.999815 0.00784346 0)
(1.0011 -0.000946376 0)
(0.99816 -0.000979353 0)
(0.998623 0.00192777 0)
(1.00147 0.000443283 0)
(1.00216 0.00265334 0)
(1.00252 -0.000285062 0)
(1.00416 0.00245322 0)
(1.00404 -0.00159123 0)
(1.00484 0.00385249 0)
(1.00527 -0.00288315 0)
(1.00485 0.00460159 0)
(1.00633 -0.00254961 0)
(1.00495 0.00349621 0)
(1.00562 -0.000807589 0)
(1.00532 0.00229767 0)
(1.00485 0.00100787 0)
(1.00416 0.00221097 0)
(1.00304 0.00337689 0)
(1.00196 0.0047358 0)
(1.00071 0.00800553 0)
(1.00115 -0.000928134 0)
(0.998054 -0.000979156 0)
(0.998924 0.00190269 0)
(1.00163 0.000408183 0)
(1.00241 0.0026084 0)
(1.00254 -0.000299131 0)
(1.00425 0.00240152 0)
(1.00404 -0.00155294 0)
(1.00497 0.00373232 0)
(1.00532 -0.00273929 0)
(1.00506 0.00436923 0)
(1.00642 -0.00229007 0)
(1.00522 0.00318042 0)
(1.00577 -0.000470306 0)
(1.00562 0.00197544 0)
(1.00508 0.00137342 0)
(1.00452 0.00209568 0)
(1.00342 0.0036583 0)
(1.00247 0.00497427 0)
(1.00136 0.00809967 0)
(1.00119 -0.000909183 0)
(0.998 -0.000980703 0)
(0.99911 0.00187462 0)
(1.00172 0.000371823 0)
(1.00257 0.00256066 0)
(1.00255 -0.000308688 0)
(1.00429 0.00234305 0)
(1.00405 -0.0015059 0)
(1.00501 0.003596 0)
(1.00535 -0.00257791 0)
(1.00517 0.00411079 0)
(1.00644 -0.0020063 0)
(1.00538 0.00283958 0)
(1.00582 -0.000128228 0)
(1.0058 0.00166738 0)
(1.00521 0.00169717 0)
(1.00476 0.00205741 0)
(1.0037 0.00386567 0)
(1.00285 0.00525614 0)
(1.00188 0.00815882 0)
(1.00121 -0.000889977 0)
(0.997976 -0.00098269 0)
(0.999234 0.00184384 0)
(1.00178 0.000335117 0)
(1.00266 0.00250859 0)
(1.00255 -0.000312585 0)
(1.0043 0.0022757 0)
(1.00405 -0.00144815 0)
(1.00502 0.0034425 0)
(1.00536 -0.00239762 0)
(1.00522 0.00382701 0)
(1.00642 -0.00170248 0)
(1.00548 0.0024848 0)
(1.00582 0.000204138 0)
(1.00593 0.0013895 0)
(1.00528 0.00196176 0)
(1.00493 0.00209905 0)
(1.00393 0.0040144 0)
(1.00316 0.00555281 0)
(1.00231 0.00821352 0)
(1.00124 -0.000870881 0)
(0.997971 -0.000984081 0)
(0.999327 0.00181044 0)
(1.0018 0.000298164 0)
(1.00271 0.00245073 0)
(1.00254 -0.0003104 0)
(1.0043 0.00219835 0)
(1.00406 -0.00137871 0)
(1.00501 0.00327118 0)
(1.00535 -0.00219898 0)
(1.00525 0.00352184 0)
(1.00637 -0.00138735 0)
(1.00557 0.00212879 0)
(1.00579 0.000521696 0)
(1.00604 0.00116122 0)
(1.00533 0.00216024 0)
(1.00507 0.00221434 0)
(1.00414 0.00411993 0)
(1.00345 0.00583638 0)
(1.0027 0.00828067 0)
(1.00127 -0.000852388 0)
(0.997977 -0.000983453 0)
(0.999406 0.00177371 0)
(1.00181 0.000261615 0)
(1.00275 0.00238502 0)
(1.00252 -0.000300473 0)
(1.0043 0.00210854 0)
(1.00406 -0.00129519 0)
(1.00499 0.00308105 0)
(1.00534 -0.00198401 0)
(1.00528 0.00320059 0)
(1.00632 -0.00106976 0)
(1.00565 0.00178159 0)
(1.00575 0.000812725 0)
(1.00613 0.000997934 0)
(1.00539 0.00229775 0)
(1.00519 0.00238994 0)
(1.00435 0.00420096 0)
(1.00373 0.00608826 0)
(1.00306 0.00836388 0)
(1.00129 -0.000834941 0)
(0.997991 -0.000979477 0)
(0.999476 0.00173201 0)
(1.00181 0.00022822 0)
(1.00277 0.00230886 0)
(1.00249 -0.0002805 0)
(1.00429 0.00200382 0)
(1.00406 -0.00119565 0)
(1.00497 0.00287175 0)
(1.00533 -0.00175429 0)
(1.00531 0.00286743 0)
(1.00625 -0.00075866 0)
(1.00573 0.0014575 0)
(1.00571 0.0010537 0)
(1.00621 0.000899384 0)
(1.00545 0.00238218 0)
(1.00531 0.00260909 0)
(1.00456 0.00428108 0)
(1.00401 0.00630201 0)
(1.0034 0.00846232 0)
(1.00131 -0.000818609 0)
(0.998013 -0.000971616 0)
(0.999541 0.00168443 0)
(1.00181 0.000199601 0)
(1.00279 0.00222089 0)
(1.00246 -0.000249829 0)
(1.00428 0.0018831 0)
(1.00405 -0.00108156 0)
(1.00496 0.00264664 0)
(1.00531 -0.00151688 0)
(1.00534 0.00253234 0)
(1.00619 -0.000466345 0)
(1.0058 0.00116865 0)
(1.00567 0.00123727 0)
(1.00628 0.000857489 0)
(1.00553 0.00242041 0)
(1.00543 0.00284903 0)
(1.00478 0.00438172 0)
(1.00431 0.0064824 0)
(1.00373 0.00857762 0)
(1.00132 -0.000803676 0)
(0.998043 -0.000958435 0)
(0.999599 0.00162952 0)
(1.00181 0.000176446 0)
(1.0028 0.00212024 0)
(1.00244 -0.00020731 0)
(1.00426 0.00174684 0)
(1.00406 -0.000956955 0)
(1.00494 0.00241229 0)
(1.00529 -0.00128254 0)
(1.00537 0.00220874 0)
(1.00612 -0.000205842 0)
(1.00587 0.000920081 0)
(1.00564 0.00136684 0)
(1.00634 0.000862276 0)
(1.00564 0.00242507 0)
(1.00556 0.00308622 0)
(1.00501 0.00451653 0)
(1.00461 0.00664118 0)
(1.00405 0.00871205 0)
(1.00132 -0.000790843 0)
(0.998086 -0.000938058 0)
(0.999648 0.00156474 0)
(1.00182 0.000160401 0)
(1.0028 0.00200532 0)
(1.00242 -0.000153261 0)
(1.00424 0.00159797 0)
(1.00406 -0.00082502 0)
(1.00492 0.0021745 0)
(1.00527 -0.00105753 0)
(1.0054 0.00190332 0)
(1.00606 1.93002e-05 0)
(1.00594 0.000708671 0)
(1.00563 0.00144694 0)
(1.0064 0.000898216 0)
(1.00576 0.0024118 0)
(1.0057 0.00329875 0)
(1.00524 0.00468242 0)
(1.00492 0.00678411 0)
(1.00437 0.00886349 0)
(1.00131 -0.000780859 0)
(0.998142 -0.000908646 0)
(0.999685 0.00148689 0)
(1.00184 0.000153492 0)
(1.0028 0.00187238 0)
(1.00241 -8.7167e-05 0)
(1.00421 0.00143561 0)
(1.00407 -0.000687163 0)
(1.00489 0.00193598 0)
(1.00525 -0.000843687 0)
(1.00543 0.00161869 0)
(1.00601 0.000208183 0)
(1.006 0.00053566 0)
(1.00564 0.00148183 0)
(1.00645 0.000953269 0)
(1.0059 0.00238647 0)
(1.00585 0.00347032 0)
(1.00548 0.00485805 0)
(1.00524 0.00691225 0)
(1.00469 0.00903398 0)
(1.00128 -0.000771493 0)
(0.998214 -0.000872774 0)
(0.999708 0.00139788 0)
(1.00187 0.000150959 0)
(1.00278 0.00172891 0)
(1.0024 -2.16241e-05 0)
(1.00417 0.00127242 0)
(1.00409 -0.000561412 0)
(1.00486 0.00171832 0)
(1.00524 -0.000668971 0)
(1.00544 0.00138339 0)
(1.00596 0.000338644 0)
(1.00604 0.000425357 0)
(1.00566 0.00145793 0)
(1.00649 0.0010402 0)
(1.00606 0.00231985 0)
(1.00602 0.00358787 0)
(1.00574 0.00495279 0)
(1.00557 0.00700504 0)
(1.00502 0.0092011 0)
(1.00123 -0.000765094 0)
(0.9983 -0.000825107 0)
(0.999717 0.0012923 0)
(1.00191 0.000159522 0)
(1.00276 0.00157056 0)
(1.00241 5.21862e-05 0)
(1.00412 0.00110683 0)
(1.00411 -0.000444412 0)
(1.00482 0.00151715 0)
(1.00523 -0.000527251 0)
(1.00545 0.00117652 0)
(1.00592 0.0004351 0)
(1.00607 0.000334138 0)
(1.0057 0.00141376 0)
(1.00653 0.00111949 0)
(1.00623 0.00224115 0)
(1.0062 0.00361695 0)
(1.00601 0.00496929 0)
(1.00592 0.00695595 0)
(1.00539 0.00916956 0)
(1.00117 -0.00076317 0)
(0.998399 -0.000763506 0)
(0.999713 0.00117352 0)
(1.00197 0.000173004 0)
(1.00272 0.00140349 0)
(1.00242 0.000126667 0)
(1.00406 0.000953424 0)
(1.00414 -0.000349815 0)
(1.00477 0.0013464 0)
(1.00523 -0.000411084 0)
(1.00545 0.000985029 0)
(1.00588 0.00050754 0)
(1.00609 0.0002494 0)
(1.00575 0.00136523 0)
(1.00655 0.00119565 0)
(1.0064 0.00218685 0)
(1.00638 0.00366182 0)
(1.00628 0.00504874 0)
(1.00627 0.00694034 0)
(1.00579 0.00917584 0)
(1.0011 -0.000761164 0)
(0.998505 -0.000693577 0)
(0.9997 0.00104571 0)
(1.00202 0.00018548 0)
(1.00268 0.00123488 0)
(1.00244 0.000186518 0)
(1.004 0.000820831 0)
(1.00417 -0.000283722 0)
(1.00471 0.00120835 0)
(1.00522 -0.00033021 0)
(1.00545 0.000832563 0)
(1.00585 0.000544205 0)
(1.0061 0.000209389 0)
(1.00581 0.00129082 0)
(1.00658 0.00134768 0)
(1.00659 0.00223109 0)
(1.00659 0.00380266 0)
(1.00656 0.00521879 0)
(1.00663 0.00702808 0)
(1.00621 0.00921276 0)
(1.00102 -0.000762833 0)
(0.998612 -0.000612344 0)
(0.999683 0.000908853 0)
(1.00208 0.000199353 0)
(1.00263 0.00106691 0)
(1.00245 0.0002341 0)
(1.00393 0.000705512 0)
(1.00419 -0.000235429 0)
(1.00465 0.0010766 0)
(1.00521 -0.000245962 0)
(1.00544 0.000673129 0)
(1.00582 0.00060541 0)
(1.00611 0.00024358 0)
(1.00589 0.0012897 0)
(1.00663 0.00157197 0)
(1.00678 0.00240344 0)
(1.00681 0.00397327 0)
(1.00685 0.00542399 0)
(1.00699 0.00713002 0)
(1.00665 0.00923012 0)
(1.00095 -0.000766971 0)
(0.998714 -0.000522602 0)
(0.999664 0.000770164 0)
(1.00213 0.000200202 0)
(1.00259 0.000916483 0)
(1.00247 0.000250076 0)
(1.00386 0.000618524 0)
(1.00422 -0.000214579 0)
(1.0046 0.000959927 0)
(1.0052 -0.000156874 0)
(1.00543 0.000530923 0)
(1.0058 0.000699986 0)
(1.00611 0.000369933 0)
(1.00598 0.00137116 0)
(1.00668 0.00180193 0)
(1.00697 0.00260557 0)
(1.00704 0.00413183 0)
(1.00715 0.00559764 0)
(1.00735 0.00718976 0)
(1.00708 0.00916081 0)
(1.00088 -0.000770257 0)
(0.998805 -0.000433438 0)
(0.999648 0.000628442 0)
(1.00217 0.00018482 0)
(1.00254 0.00077911 0)
(1.00247 0.000240198 0)
(1.00378 0.000544458 0)
(1.00424 -0.00020168 0)
(1.00455 0.000848207 0)
(1.00517 -5.51616e-05 0)
(1.00543 0.000471889 0)
(1.0058 0.000811641 0)
(1.00612 0.000550086 0)
(1.00608 0.00146725 0)
(1.00675 0.00199708 0)
(1.00716 0.00276948 0)
(1.00728 0.00423523 0)
(1.00744 0.00570492 0)
(1.00769 0.00720257 0)
(1.00751 0.00902063 0)
(1.00081 -0.000774924 0)
(0.998884 -0.0003403 0)
(0.999635 0.000499597 0)
(1.00221 0.000138635 0)
(1.00251 0.000662427 0)
(1.00247 0.00020782 0)
(1.00372 0.000480355 0)
(1.00424 -0.000179603 0)
(1.0045 0.00074058 0)
(1.00515 9.11953e-05 0)
(1.00544 0.000491384 0)
(1.0058 0.000932295 0)
(1.00613 0.000743518 0)
(1.00617 0.00156214 0)
(1.00682 0.00215254 0)
(1.00734 0.002893 0)
(1.00753 0.00428977 0)
(1.00774 0.00577506 0)
(1.00803 0.00720796 0)
(1.00793 0.00887164 0)
(1.00076 -0.000777978 0)
(0.998949 -0.000252144 0)
(0.999623 0.000389733 0)
(1.00223 5.89333e-05 0)
(1.00247 0.000571012 0)
(1.00246 0.000145444 0)
(1.00366 0.000420498 0)
(1.00424 -0.000140328 0)
(1.00447 0.000670299 0)
(1.00512 0.000270019 0)
(1.00545 0.000552666 0)
(1.0058 0.00102939 0)
(1.00614 0.000907156 0)
(1.00626 0.00164374 0)
(1.00691 0.00227982 0)
(1.00753 0.00300195 0)
(1.00779 0.00432795 0)
(1.00804 0.0058274 0)
(1.00836 0.00721439 0)
(1.00833 0.00872956 0)
(1.00072 -0.000778646 0)
(0.999001 -0.000174177 0)
(0.999612 0.000314698 0)
(1.00224 -5.78914e-05 0)
(1.00245 0.000481473 0)
(1.00244 7.75868e-05 0)
(1.0036 0.000351647 0)
(1.00423 -6.19141e-05 0)
(1.00445 0.000668449 0)
(1.00509 0.00044958 0)
(1.00545 0.000645327 0)
(1.0058 0.00110394 0)
(1.00615 0.0010553 0)
(1.00636 0.00172882 0)
(1.007 0.00240447 0)
(1.00771 0.00311072 0)
(1.00806 0.00436073 0)
(1.00836 0.00584972 0)
(1.00869 0.00720084 0)
(1.0087 0.00858443 0)
(1.00068 -0.000777191 0)
(0.999043 -0.000109735 0)
(0.999596 0.000280886 0)
(1.00225 -0.000202283 0)
(1.00242 0.000390622 0)
(1.00242 1.51058e-05 0)
(1.00356 0.000294588 0)
(1.00422 7.42838e-05 0)
(1.00443 0.000711475 0)
(1.00506 0.000613138 0)
(1.00545 0.00075855 0)
(1.0058 0.0011751 0)
(1.00617 0.00119492 0)
(1.00645 0.00182458 0)
(1.0071 0.00253332 0)
(1.00788 0.0032229 0)
(1.00834 0.00438561 0)
(1.00867 0.00583465 0)
(1.00902 0.00715667 0)
(1.00906 0.00843419 0)
(1.00065 -0.000767663 0)
(0.999078 -6.79609e-05 0)
(0.999574 0.000284647 0)
(1.00224 -0.000362011 0)
(1.0024 0.000308015 0)
(1.00238 -2.3175e-05 0)
(1.00352 0.000268222 0)
(1.00421 0.000222824 0)
(1.00442 0.000763864 0)
(1.00503 0.00074103 0)
(1.00545 0.000864736 0)
(1.0058 0.00124296 0)
(1.0062 0.00130973 0)
(1.00654 0.00191239 0)
(1.00721 0.00265214 0)
(1.00805 0.00333317 0)
(1.00861 0.00439791 0)
(1.009 0.005781 0)
(1.00935 0.00707699 0)
(1.0094 0.00827639 0)
(1.00062 -0.000755572 0)
(0.99911 -4.09227e-05 0)
(0.999544 0.000317033 0)
(1.00223 -0.000512447 0)
(1.00239 0.00021759 0)
(1.00235 -2.02004e-06 0)
(1.0035 0.000248 0)
(1.0042 0.000350883 0)
(1.00441 0.000810329 0)
(1.005 0.000828355 0)
(1.00545 0.000959996 0)
(1.0058 0.00131978 0)
(1.00622 0.00141557 0)
(1.00664 0.0019899 0)
(1.00733 0.00275867 0)
(1.00822 0.00344422 0)
(1.00887 0.00440739 0)
(1.00932 0.00569825 0)
(1.00967 0.00696018 0)
(1.00973 0.00810379 0)
(1.00059 -0.000736649 0)
(0.999143 -4.78641e-05 0)
(0.999507 0.000373542 0)
(1.0022 -0.000626959 0)
(1.00239 0.000131023 0)
(1.00232 4.51732e-05 0)
(1.00348 0.000228967 0)
(1.00419 0.000460607 0)
(1.00439 0.000868617 0)
(1.00497 0.000900243 0)
(1.00545 0.00105411 0)
(1.00581 0.00141736 0)
(1.00625 0.00153566 0)
(1.00674 0.00206069 0)
(1.00746 0.00284604 0)
(1.00838 0.00355111 0)
(1.00912 0.00442482 0)
(1.00964 0.00560247 0)
(1.01001 0.0068106 0)
(1.01006 0.007909 0)
(1.00056 -0.000708804 0)
(0.999178 -8.68739e-05 0)
(0.999466 0.000453667 0)
(1.00217 -0.000702177 0)
(1.00239 4.87554e-05 0)
(1.00228 0.0001017 0)
(1.00346 0.000217031 0)
(1.00419 0.000553538 0)
(1.00437 0.000948713 0)
(1.00495 0.00097143 0)
(1.00545 0.00114008 0)
(1.00581 0.00152375 0)
(1.00628 0.00166442 0)
(1.00684 0.00212368 0)
(1.0076 0.00290192 0)
(1.00854 0.00364115 0)
(1.00935 0.004454 0)
(1.00995 0.00551367 0)
(1.01034 0.00664468 0)
(1.01038 0.00769471 0)
(1.00052 -0.000677629 0)
(0.999218 -0.000146525 0)
(0.999423 0.00054234 0)
(1.00213 -0.000732924 0)
(1.0024 -3.48691e-05 0)
(1.00225 0.000177223 0)
(1.00344 0.000221512 0)
(1.00419 0.000628543 0)
(1.00436 0.00104573 0)
(1.00492 0.00104615 0)
(1.00546 0.00120726 0)
(1.00582 0.00162395 0)
(1.0063 0.00179352 0)
(1.00694 0.00218827 0)
(1.00775 0.00293216 0)
(1.00871 0.00370579 0)
(1.00958 0.00448705 0)
(1.01024 0.005439 0)
(1.01067 0.00647394 0)
(1.0107 0.00746267 0)
(1.00049 -0.000638157 0)
(0.999264 -0.000227847 0)
(0.999382 0.00062957 0)
(1.00208 -0.000719659 0)
(1.00241 -0.000119235 0)
(1.00223 0.000271768 0)
(1.00342 0.00025283 0)
(1.0042 0.000686421 0)
(1.00434 0.00115361 0)
(1.00489 0.00113552 0)
(1.00547 0.00126563 0)
(1.00584 0.00171724 0)
(1.00633 0.00192773 0)
(1.00703 0.00226298 0)
(1.00791 0.00294517 0)
(1.0089 0.00373355 0)
(1.0098 0.00450208 0)
(1.01052 0.00536605 0)
(1.01098 0.00629717 0)
(1.01101 0.00721068 0)
(1.00046 -0.000593896 0)
(0.999317 -0.000316979 0)
(0.999346 0.000700016 0)
(1.00202 -0.000672121 0)
(1.00244 -0.000203465 0)
(1.00221 0.000382285 0)
(1.00341 0.000319058 0)
(1.00422 0.000723628 0)
(1.00433 0.00125341 0)
(1.00485 0.00123401 0)
(1.00549 0.00131497 0)
(1.00588 0.00179198 0)
(1.00635 0.00206551 0)
(1.00712 0.00235395 0)
(1.00807 0.00295278 0)
(1.00909 0.00372702 0)
(1.01003 0.00448924 0)
(1.01079 0.00528641 0)
(1.01128 0.00611566 0)
(1.01132 0.00694184 0)
(1.00042 -0.00055552 0)
(0.999376 -0.000410137 0)
(0.999318 0.000751123 0)
(1.00194 -0.000595737 0)
(1.00247 -0.000263112 0)
(1.0022 0.00050875 0)
(1.00338 0.000413129 0)
(1.00425 0.000749351 0)
(1.00433 0.00134329 0)
(1.00481 0.00135017 0)
(1.0055 0.00136408 0)
(1.00592 0.00183944 0)
(1.00639 0.00219194 0)
(1.00719 0.00245808 0)
(1.00822 0.002963 0)
(1.00929 0.0036947 0)
(1.01025 0.00444826 0)
(1.01104 0.00519847 0)
(1.01156 0.00593762 0)
(1.01161 0.00667106 0)
(1.00039 -0.000497915 0)
(0.999444 -0.000525117 0)
(0.999302 0.000755408 0)
(1.00187 -0.000534426 0)
(1.0025 -0.000222302 0)
(1.00221 0.000705697 0)
(1.00336 0.000544204 0)
(1.00428 0.000757405 0)
(1.00434 0.00140215 0)
(1.00477 0.00146985 0)
(1.00551 0.0014178 0)
(1.00599 0.00185581 0)
(1.00644 0.00228728 0)
(1.00726 0.00256098 0)
(1.00836 0.00297349 0)
(1.0095 0.00363569 0)
(1.01048 0.00436909 0)
(1.01129 0.00508671 0)
(1.01183 0.00575385 0)
(1.01188 0.00639763 0)
(1.00035 -0.000457665 0)
(0.999515 -0.000655484 0)
(0.999296 0.000675641 0)
(1.0018 -0.000473474 0)
(1.00256 -7.37649e-05 0)
(1.00222 0.000978519 0)
(1.00331 0.000750963 0)
(1.0043 0.000796655 0)
(1.00437 0.00145854 0)
(1.00474 0.0016104 0)
(1.00552 0.00150423 0)
(1.00606 0.00186812 0)
(1.00651 0.00235967 0)
(1.00733 0.00266563 0)
(1.00849 0.00299985 0)
(1.0097 0.0035701 0)
(1.01072 0.00426249 0)
(1.01153 0.00495253 0)
(1.01208 0.00556641 0)
(1.01213 0.00613077 0)
(1.00032 -0.000377504 0)
(0.999584 -0.000854596 0)
(0.999309 0.000608526 0)
(1.00177 -0.000306107 0)
(1.00265 -1.82908e-05 0)
(1.00226 0.0011721 0)
(1.00326 0.000973083 0)
(1.00432 0.000864862 0)
(1.00441 0.00151624 0)
(1.00471 0.00177016 0)
(1.00551 0.001634 0)
(1.00613 0.00190163 0)
(1.0066 0.00241976 0)
(1.0074 0.00277414 0)
(1.00861 0.00305756 0)
(1.00989 0.0035262 0)
(1.01097 0.00415336 0)
(1.01179 0.00481119 0)
(1.01232 0.00538673 0)
(1.01237 0.005886 0)
(1.00028 -0.000269189 0)
(0.999653 -0.000925268 0)
(0.999359 0.000618229 0)
(1.00173 -0.000157515 0)
(1.00275 -7.70206e-05 0)
(1.00232 0.00122658 0)
(1.0032 0.00116368 0)
(1.00433 0.000923401 0)
(1.00447 0.0015266 0)
(1.0047 0.00188833 0)
(1.0055 0.00174966 0)
(1.00621 0.0019128 0)
(1.0067 0.00241059 0)
(1.00749 0.00281391 0)
(1.00872 0.00307712 0)
(1.01007 0.00345034 0)
(1.0112 0.00399219 0)
(1.01204 0.00460682 0)
(1.01257 0.00515456 0)
(1.0126 0.00560842 0)
(1.00025 -0.00033628 0)
(0.99972 -0.000667394 0)
(0.999402 0.000806162 0)
(1.00167 -0.000112677 0)
(1.00283 -0.000160949 0)
(1.00239 0.00117172 0)
(1.00314 0.0012842 0)
(1.00432 0.000950354 0)
(1.00453 0.00147027 0)
(1.00469 0.00195 0)
(1.00546 0.00186202 0)
(1.00626 0.00193464 0)
(1.00681 0.00237867 0)
(1.00758 0.00282407 0)
(1.00881 0.00309434 0)
(1.01022 0.00338867 0)
(1.01142 0.00383026 0)
(1.01229 0.00437822 0)
(1.0128 0.0048908 0)
(1.01281 0.00530697 0)
(1.00021 -0.000201138 0)
(0.999821 -0.000796868 0)
(0.999421 0.000697039 0)
(1.00157 0.00016443 0)
(1.00289 -9.43259e-05 0)
(1.00246 0.00124864 0)
(1.00307 0.00154694 0)
(1.00428 0.00113949 0)
(1.00459 0.00152068 0)
(1.0047 0.0020647 0)
(1.00542 0.00204387 0)
(1.00628 0.00201917 0)
(1.00691 0.00236623 0)
(1.00767 0.00282429 0)
(1.00888 0.00311476 0)
(1.01032 0.0033532 0)
(1.01159 0.00369773 0)
(1.0125 0.00416428 0)
(1.01301 0.00463264 0)
(1.01299 0.00501696 0)
(1.00018 -7.5942e-05 0)
(0.999872 -0.000959296 0)
(0.999531 0.000612384 0)
(1.00154 0.000532887 0)
(1.00296 3.84395e-05 0)
(1.00259 0.00131477 0)
(1.00305 0.00179339 0)
(1.00425 0.00135505 0)
(1.00465 0.00158266 0)
(1.00473 0.00215212 0)
(1.00538 0.00221701 0)
(1.00629 0.00212641 0)
(1.00701 0.00236334 0)
(1.00778 0.00280089 0)
(1.00897 0.00311291 0)
(1.01042 0.00331746 0)
(1.01175 0.00357643 0)
(1.01271 0.00395337 0)
(1.01323 0.00436447 0)
(1.01318 0.00471477 0)
(1.00015 -9.76348e-05 0)
(0.999961 -0.000740976 0)
(0.999638 0.000753845 0)
(1.00148 0.000678907 0)
(1.00301 0.000100071 0)
(1.00272 0.00124502 0)
(1.00302 0.00188849 0)
(1.00418 0.00149778 0)
(1.00471 0.00158261 0)
(1.00479 0.00215463 0)
(1.00536 0.00231897 0)
(1.00628 0.00221161 0)
(1.00709 0.00234886 0)
(1.0079 0.00273037 0)
(1.00905 0.00304587 0)
(1.0105 0.00323029 0)
(1.01187 0.00341751 0)
(1.01289 0.0037031 0)
(1.01342 0.00404458 0)
(1.01335 0.00435365 0)
(1.00012 -6.48086e-06 0)
(1.00002 -0.00059715 0)
(0.999736 0.000747892 0)
(1.00142 0.000809666 0)
(1.00303 0.000205379 0)
(1.00285 0.00120538 0)
(1.00301 0.00200892 0)
(1.00409 0.00170383 0)
(1.00473 0.00164158 0)
(1.00483 0.00214855 0)
(1.00532 0.00238823 0)
(1.00623 0.00229081 0)
(1.00712 0.00232952 0)
(1.00799 0.00262374 0)
(1.00912 0.00291636 0)
(1.01055 0.00309121 0)
(1.01195 0.00323014 0)
(1.01302 0.00343969 0)
(1.01358 0.00371331 0)
(1.0135 0.00398008 0)
(1.00009 3.54131e-05 0)
(1.00009 -0.000480227 0)
(0.999834 0.000758121 0)
(1.00135 0.00100749 0)
(1.00303 0.000372995 0)
(1.00298 0.00119817 0)
(1.00302 0.0021245 0)
(1.00399 0.00193628 0)
(1.00472 0.00175832 0)
(1.00488 0.00216438 0)
(1.00529 0.00247401 0)
(1.00617 0.00242357 0)
(1.00712 0.00237923 0)
(1.00805 0.00256467 0)
(1.00918 0.00280721 0)
(1.01058 0.00296354 0)
(1.01199 0.00306336 0)
(1.0131 0.0032046 0)
(1.0137 0.00340621 0)
(1.01361 0.0036196 0)
(1.00007 0.000114782 0)
(1.00014 -0.000461978 0)
(0.999949 0.000708302 0)
(1.0013 0.0012118 0)
(1.00301 0.000610203 0)
(1.00312 0.00125629 0)
(1.00306 0.00225606 0)
(1.00389 0.0022108 0)
(1.00468 0.0019451 0)
(1.00492 0.0022134 0)
(1.00528 0.00254385 0)
(1.0061 0.00254118 0)
(1.00708 0.00243349 0)
(1.00807 0.00249815 0)
(1.00921 0.00266686 0)
(1.0106 0.00278923 0)
(1.01201 0.00285529 0)
(1.01315 0.00293919 0)
(1.01378 0.00307312 0)
(1.0137 0.00323008 0)
(1.00005 0.000157908 0)
(1.00019 -0.000316149 0)
(1.00009 0.000756565 0)
(1.00128 0.00143188 0)
(1.00298 0.000887612 0)
(1.00325 0.00133178 0)
(1.00312 0.00233992 0)
(1.00379 0.00244204 0)
(1.0046 0.00213863 0)
(1.00494 0.00226229 0)
(1.00528 0.00256825 0)
(1.00602 0.00261477 0)
(1.00701 0.00248877 0)
(1.00805 0.00245317 0)
(1.00922 0.00253711 0)
(1.01059 0.0026105 0)
(1.012 0.00264074 0)
(1.01317 0.00267163 0)
(1.01382 0.00274068 0)
(1.01375 0.00283759 0)
(1.00003 0.000166607 0)
(1.00023 -4.71893e-05 0)
(1.00022 0.000834749 0)
(1.00126 0.00160256 0)
(1.00291 0.00115916 0)
(1.00334 0.0014247 0)
(1.0032 0.00238498 0)
(1.0037 0.00264294 0)
(1.0045 0.00235746 0)
(1.00492 0.00235019 0)
(1.00527 0.00258879 0)
(1.00594 0.00266166 0)
(1.0069 0.00253686 0)
(1.00798 0.00241895 0)
(1.00918 0.00240327 0)
(1.01055 0.00240662 0)
(1.01195 0.0023847 0)
(1.01313 0.00235901 0)
(1.01381 0.00236391 0)
(1.01376 0.00240166 0)
(1.00002 0.000273224 0)
(1.00026 2.70025e-05 0)
(1.00033 0.000810041 0)
(1.00126 0.00168115 0)
(1.00284 0.00139732 0)
(1.00341 0.00154329 0)
(1.00329 0.00241421 0)
(1.00363 0.00280804 0)
(1.00436 0.00258002 0)
(1.00486 0.00246558 0)
(1.00523 0.00260372 0)
(1.00584 0.00267075 0)
(1.00676 0.00254611 0)
(1.00785 0.00237032 0)
(1.00908 0.00225367 0)
(1.01045 0.00217552 0)
(1.01185 0.00208653 0)
(1.01304 0.00200138 0)
(1.01374 0.00194353 0)
(1.01371 0.00192446 0)
(1.00001 0.00022949 0)
(1.00025 0.000334472 0)
(1.00045 0.00096228 0)
(1.00127 0.00185767 0)
(1.00276 0.00173265 0)
(1.00345 0.00176506 0)
(1.00337 0.00251338 0)
(1.00357 0.00298834 0)
(1.00421 0.00284449 0)
(1.00475 0.00265325 0)
(1.00516 0.00267604 0)
(1.00573 0.00270123 0)
(1.00659 0.00256736 0)
(1.00767 0.00234433 0)
(1.00891 0.00213588 0)
(1.0103 0.00196063 0)
(1.01169 0.00179387 0)
(1.01289 0.00164128 0)
(1.01362 0.00152106 0)
(1.0136 0.00144484 0)
(1.00001 0.000299401 0)
(1.00028 0.000429261 0)
(1.00051 0.00104437 0)
(1.00127 0.00200191 0)
(1.00266 0.00205066 0)
(1.00344 0.00202212 0)
(1.00343 0.00264192 0)
(1.00352 0.00315946 0)
(1.00404 0.00310557 0)
(1.00459 0.0028721 0)
(1.00504 0.00278493 0)
(1.00558 0.00273615 0)
(1.00638 0.00258078 0)
(1.00742 0.00231128 0)
(1.00867 0.00202217 0)
(1.01005 0.00174424 0)
(1.01145 0.00148884 0)
(1.01266 0.00126235 0)
(1.01342 0.0010761 0)
(1.01343 0.00094122 0)
(0.999997 0.000376982 0)
(1.00026 0.000468637 0)
(1.00064 0.00113977 0)
(1.00133 0.00215433 0)
(1.00259 0.00237426 0)
(1.00342 0.00233272 0)
(1.00349 0.00281369 0)
(1.00349 0.00333324 0)
(1.00388 0.00336459 0)
(1.0044 0.00312203 0)
(1.00488 0.00294331 0)
(1.00541 0.00280925 0)
(1.00615 0.00260236 0)
(1.00715 0.00228492 0)
(1.00837 0.00190916 0)
(1.00975 0.00152985 0)
(1.01115 0.0011711 0)
(1.01237 0.000855115 0)
(1.01316 0.000594017 0)
(1.0132 0.000391554 0)
(0.999998 0.00035062 0)
(1.00028 0.000804147 0)
(1.00072 0.0013709 0)
(1.00138 0.0023304 0)
(1.00251 0.00268948 0)
(1.00336 0.00266952 0)
(1.00351 0.00302191 0)
(1.00346 0.0035148 0)
(1.00372 0.00362519 0)
(1.00418 0.00340054 0)
(1.00466 0.00314088 0)
(1.00517 0.00290948 0)
(1.00586 0.00262202 0)
(1.0068 0.00223496 0)
(1.00797 0.00177195 0)
(1.00933 0.00128503 0)
(1.01074 0.000818907 0)
(1.01198 0.000397574 0)
(1.0128 5.06998e-05 0)
(1.01288 -0.000227697 0)
(0.999997 0.000397614 0)
(1.00025 0.00102888 0)
(1.00077 0.00156864 0)
(1.00142 0.00246598 0)
(1.00243 0.00294605 0)
(1.00326 0.00299362 0)
(1.00349 0.00326205 0)
(1.00341 0.00371765 0)
(1.00355 0.00389679 0)
(1.00391 0.00370668 0)
(1.00436 0.00338561 0)
(1.00486 0.00304857 0)
(1.0055 0.00266806 0)
(1.00636 0.00219529 0)
(1.00748 0.00163894 0)
(1.00881 0.0010396 0)
(1.01021 0.000447695 0)
(1.01147 -9.6829e-05 0)
(1.01233 -0.000559753 0)
(1.01246 -0.000936439 0)