/*--------------------------------*- C++ -*----------------------------------*\
| =========                 |                                                 |
| \\      /  F ield         | OpenFOAM: The Open Source CFD Toolbox           |
|  \\    /   O peration     | Version:  v2012                                 |
|   \\  /    A nd           | Website:  www.openfoam.com                      |
|    \\/     M anipulation  |                                                 |
\*---------------------------------------------------------------------------*/
FoamFile
{
    version     2.0;
    format      ascii;
    class       surfaceScalarField;
    location    "4.45";
    object      phi;
}
// * * * * * * * * * * * * * * * * * * * * * * * * * * * * * * * * * * * * * //

dimensions      [0 3 -1 0 0 0 0];
oriented        oriented;


internalField   nonuniform List<scalar> 
34900
(
1.18155e-06
6.79924e-08
1.17011e-06
3.42076e-07
1.16992e-06
-6.92392e-08
1.15482e-06
-6.29e-08
1.16024e-06
2.25929e-08
1.15027e-06
-3.06185e-08
1.15512e-06
4.06386e-08
1.14682e-06
-3.82173e-08
1.15212e-06
3.78668e-08
1.14474e-06
-1.26863e-08
1.15082e-06
4.31881e-08
1.14298e-06
-1.50232e-08
1.14979e-06
4.35029e-08
1.13984e-06
-3.39535e-08
1.14757e-06
5.20012e-08
1.134e-06
-6.08955e-08
1.14342e-06
7.33962e-08
1.12431e-06
-8.57474e-08
1.13242e-06
9.32395e-08
-7.76045e-08
1.08328e-06
1.23535e-06
5.6901e-08
1.22839e-06
3.49033e-07
1.22642e-06
-6.72618e-08
1.2119e-06
-4.83849e-08
1.21492e-06
1.95712e-08
1.20742e-06
-2.31167e-08
1.209e-06
3.90568e-08
1.20436e-06
-3.35706e-08
1.2055e-06
3.6723e-08
1.20311e-06
-1.02969e-08
1.20338e-06
4.29196e-08
1.20281e-06
-1.44507e-08
1.20136e-06
4.49472e-08
1.20192e-06
-3.45065e-08
1.19713e-06
5.67863e-08
1.19927e-06
-6.3033e-08
1.18959e-06
8.30708e-08
1.19365e-06
-8.98014e-08
1.1738e-06
1.13086e-07
-7.16175e-08
1.16781e-06
1.28976e-06
4.99279e-08
1.29004e-06
3.48747e-07
1.2844e-06
-6.16218e-08
1.27376e-06
-3.7742e-08
1.27137e-06
2.19583e-08
1.26902e-06
-2.07595e-08
1.26524e-06
4.28283e-08
1.26614e-06
-3.44621e-08
1.26141e-06
4.14497e-08
1.26511e-06
-1.40009e-08
1.25944e-06
4.85886e-08
1.26507e-06
-2.00782e-08
1.25826e-06
5.17605e-08
1.26399e-06
-4.02381e-08
1.25607e-06
6.47016e-08
1.26034e-06
-6.7298e-08
1.25314e-06
9.02753e-08
1.2529e-06
-8.95695e-08
1.24639e-06
1.19601e-07
-5.21975e-08
1.22697e-06
1.34525e-06
4.8779e-08
1.35357e-06
3.40433e-07
1.34463e-06
-5.26814e-08
1.33828e-06
-3.13928e-08
1.33059e-06
2.96402e-08
1.33272e-06
-2.28808e-08
1.32512e-06
5.0426e-08
1.32949e-06
-3.88359e-08
1.32193e-06
4.90141e-08
1.32768e-06
-1.97555e-08
1.3212e-06
5.50726e-08
1.32711e-06
-2.59916e-08
1.32188e-06
5.69972e-08
1.32578e-06
-4.41418e-08
1.32191e-06
6.8566e-08
1.32246e-06
-6.78481e-08
1.32112e-06
9.16213e-08
1.31588e-06
-8.43323e-08
1.31562e-06
1.19863e-07
-2.98039e-08
1.29323e-06
1.40344e-06
5.36911e-08
1.41806e-06
3.25811e-07
1.40787e-06
-4.24895e-08
1.40441e-06
-2.79322e-08
1.39385e-06
4.0203e-08
1.39779e-06
-2.68236e-08
1.38978e-06
5.84323e-08
1.39434e-06
-4.33871e-08
1.38776e-06
5.55871e-08
1.39208e-06
-2.40695e-08
1.38816e-06
5.89915e-08
1.39183e-06
-2.9667e-08
1.38987e-06
5.89555e-08
1.3914e-06
-4.56639e-08
1.39059e-06
6.93759e-08
1.38916e-06
-6.64239e-08
1.39e-06
9.07859e-08
1.38293e-06
-7.72602e-08
1.38439e-06
1.18401e-07
-7.41114e-09
1.362e-06
1.46619e-06
6.31755e-08
1.48379e-06
3.08216e-07
1.47497e-06
-3.36719e-08
1.47254e-06
-2.55025e-08
1.46213e-06
5.06092e-08
1.46549e-06
-3.01805e-08
1.45959e-06
6.43372e-08
1.46253e-06
-4.63263e-08
1.45844e-06
5.96701e-08
1.46064e-06
-2.62657e-08
1.45923e-06
6.04004e-08
1.46124e-06
-3.16768e-08
1.46121e-06
5.89873e-08
1.46169e-06
-4.61498e-08
1.46213e-06
6.89376e-08
1.45994e-06
-6.42326e-08
1.46173e-06
8.90009e-08
1.45333e-06
-6.88603e-08
1.45612e-06
1.15602e-07
1.48546e-08
1.43386e-06
1.53479e-06
7.45973e-08
1.55206e-06
2.90949e-07
1.54629e-06
-2.78992e-08
1.54384e-06
-2.3058e-08
1.53553e-06
5.89275e-08
1.53741e-06
-3.20634e-08
1.53407e-06
6.76783e-08
1.53543e-06
-4.76933e-08
1.53334e-06
6.176e-08
1.53424e-06
-2.71588e-08
1.53415e-06
6.04879e-08
1.53544e-06
-3.29687e-08
1.5362e-06
5.82336e-08
1.53626e-06
-4.62111e-08
1.53734e-06
6.78538e-08
1.53447e-06
-6.13607e-08
1.53713e-06
8.63441e-08
1.52732e-06
-5.90554e-08
1.53126e-06
1.11659e-07
3.65951e-08
1.50952e-06
1.60938e-06
8.53493e-08
1.6243e-06
2.76027e-07
1.62161e-06
-2.5206e-08
1.61918e-06
-2.06269e-08
1.61336e-06
6.47405e-08
1.61411e-06
-3.28154e-08
1.61257e-06
6.92197e-08
1.6131e-06
-4.82206e-08
1.61211e-06
6.27521e-08
1.61249e-06
-2.75372e-08
1.61293e-06
6.00402e-08
1.6139e-06
-3.39313e-08
1.615e-06
5.71287e-08
1.61466e-06
-4.58716e-08
1.61629e-06
6.62233e-08
1.61258e-06
-5.76505e-08
1.6161e-06
8.28311e-08
1.60494e-06
-4.79035e-08
1.60966e-06
1.06948e-07
5.72575e-08
1.58899e-06
1.68911e-06
9.3813e-08
1.7012e-06
2.63937e-07
1.70049e-06
-2.44918e-08
1.6986e-06
-1.87391e-08
1.69484e-06
6.84952e-08
1.69516e-06
-3.31332e-08
1.69456e-06
6.98216e-08
1.69481e-06
-4.84725e-08
1.69439e-06
6.31773e-08
1.69461e-06
-2.77605e-08
1.69531e-06
5.93356e-08
1.69598e-06
-3.45963e-08
1.69734e-06
5.57651e-08
1.69647e-06
-4.4995e-08
1.69866e-06
6.40278e-08
1.69397e-06
-5.29632e-08
1.69828e-06
7.85222e-08
1.68597e-06
-3.55951e-08
1.69102e-06
1.01906e-07
7.62916e-08
1.67198e-06
1.77298e-06
9.95597e-08
1.78272e-06
2.54191e-07
1.78271e-06
-2.44796e-08
1.78175e-06
-1.77764e-08
1.77944e-06
7.08052e-08
1.77982e-06
-3.35125e-08
1.77965e-06
6.99844e-08
1.77986e-06
-4.86818e-08
1.77981e-06
6.32282e-08
1.77996e-06
-2.79105e-08
1.78089e-06
5.84044e-08
1.78119e-06
-3.48891e-08
1.78285e-06
5.41017e-08
1.7813e-06
-4.34419e-08
1.78411e-06
6.12148e-08
1.77838e-06
-4.72342e-08
1.78336e-06
7.35401e-08
1.77022e-06
-2.24546e-08
1.77511e-06
9.70204e-08
9.31905e-08
1.75821e-06
1.86037e-06
1.02942e-07
1.86854e-06
2.46013e-07
1.8684e-06
-2.4333e-08
1.86837e-06
-1.77453e-08
1.86701e-06
7.21591e-08
1.86765e-06
-3.41557e-08
1.86774e-06
6.99016e-08
1.86794e-06
-4.8885e-08
1.86822e-06
6.29446e-08
1.86827e-06
-2.79554e-08
1.86949e-06
5.71874e-08
1.86932e-06
-3.47237e-08
1.87138e-06
5.20416e-08
1.86905e-06
-4.11141e-08
1.87253e-06
5.77402e-08
1.8658e-06
-4.05041e-08
1.87124e-06
6.81008e-08
1.85771e-06
-8.92712e-09
1.86192e-06
9.28053e-08
1.07555e-07
1.84756e-06
1.95121e-06
1.04569e-07
1.95846e-06
2.3877e-07
1.95786e-06
-2.37405e-08
1.95853e-06
-1.84106e-08
1.95779e-06
7.28936e-08
1.95871e-06
-3.50741e-08
1.959e-06
6.96174e-08
1.95915e-06
-4.90404e-08
1.95979e-06
6.23123e-08
1.95965e-06
-2.78214e-08
1.96124e-06
5.5596e-08
1.96054e-06
-3.40225e-08
1.96311e-06
4.9476e-08
1.95996e-06
-3.79681e-08
1.96409e-06
5.36109e-08
1.95652e-06
-3.29305e-08
1.9621e-06
6.25201e-08
1.94869e-06
4.47974e-09
1.95178e-06
8.9714e-08
1.19183e-07
1.94015e-06
2.04578e-06
1.04975e-07
2.05248e-06
2.32074e-07
2.05146e-06
-2.27229e-08
2.05255e-06
-1.94978e-08
2.05222e-06
7.32232e-08
2.05334e-06
-3.61921e-08
2.05384e-06
6.91194e-08
2.05387e-06
-4.90751e-08
2.05489e-06
6.129e-08
2.05449e-06
-2.74184e-08
2.05655e-06
5.35336e-08
2.05525e-06
-3.27198e-08
2.05841e-06
4.63148e-08
2.05446e-06
-3.40203e-08
2.05916e-06
4.8912e-08
2.05101e-06
-2.4777e-08
2.05634e-06
5.71832e-08
2.04354e-06
1.72791e-08
2.04521e-06
8.80518e-08
1.2812e-07
2.03627e-06
2.14445e-06
1.04528e-07
2.15078e-06
2.25736e-07
2.1495e-06
-2.14348e-08
2.15079e-06
-2.07945e-08
2.15076e-06
7.32609e-08
2.15197e-06
-3.74037e-08
2.15272e-06
6.83685e-08
2.15254e-06
-4.88986e-08
2.15402e-06
5.98144e-08
2.15325e-06
-2.66497e-08
2.15588e-06
5.09069e-08
2.15392e-06
-3.07676e-08
2.15773e-06
4.25098e-08
2.15306e-06
-2.93548e-08
2.15816e-06
4.38166e-08
2.14977e-06
-1.6384e-08
2.15444e-06
5.25042e-08
2.14267e-06
2.90583e-08
2.14277e-06
8.79454e-08
1.3463e-07
2.13626e-06
2.24756e-06
1.03453e-07
2.25361e-06
2.19689e-07
2.25223e-06
-2.00573e-08
2.25359e-06
-2.21559e-08
2.25382e-06
7.30375e-08
2.25501e-06
-3.85952e-08
2.25607e-06
6.73037e-08
2.25558e-06
-4.84081e-08
2.25759e-06
5.7806e-08
2.25636e-06
-2.54212e-08
2.25963e-06
4.7637e-08
2.25702e-06
-2.81491e-08
2.26145e-06
3.80748e-08
2.25623e-06
-2.4135e-08
2.26147e-06
3.85794e-08
2.25321e-06
-8.12375e-09
2.25685e-06
4.88619e-08
2.24639e-06
3.95209e-08
2.24499e-06
8.93441e-08
1.39139e-07
2.24048e-06
2.35545e-06
1.01876e-07
2.36121e-06
2.13935e-07
2.35991e-06
-1.87633e-08
2.36123e-06
-2.34734e-08
2.36174e-06
7.25248e-08
2.3628e-06
-3.96508e-08
2.36426e-06
6.58444e-08
2.36335e-06
-4.74951e-08
2.36597e-06
5.5178e-08
2.3642e-06
-2.3652e-08
2.36817e-06
4.36758e-08
2.36491e-06
-2.48977e-08
2.36989e-06
3.31033e-08
2.36436e-06
-1.86084e-08
2.36942e-06
3.35151e-08
2.36165e-06
-3.45881e-10
2.36398e-06
4.65286e-08
2.35496e-06
4.85379e-08
2.35228e-06
9.20289e-08
1.42152e-07
2.34926e-06
2.46841e-06
9.98627e-08
2.47383e-06
2.08515e-07
2.47278e-06
-1.77137e-08
2.47395e-06
-2.4647e-08
2.47482e-06
7.16549e-08
2.47562e-06
-4.04522e-08
2.47757e-06
6.38939e-08
2.47613e-06
-4.60521e-08
2.47946e-06
5.18496e-08
2.4771e-06
-2.129e-08
2.48175e-06
3.90246e-08
2.47797e-06
-2.1116e-08
2.4833e-06
2.77749e-08
2.47778e-06
-1.30876e-08
2.48234e-06
2.89549e-08
2.47532e-06
6.6715e-09
2.47622e-06
4.5624e-08
2.46859e-06
5.61713e-08
2.46498e-06
9.5638e-08
1.44184e-07
2.46295e-06
2.58671e-06
9.7443e-08
2.59173e-06
2.03495e-07
2.59108e-06
-1.70615e-08
2.59201e-06
-2.55731e-08
2.59333e-06
7.03337e-08
2.59376e-06
-4.08794e-08
2.5963e-06
6.13488e-08
2.59423e-06
-4.39845e-08
2.59832e-06
4.7762e-08
2.59536e-06
-1.83289e-08
2.60063e-06
3.37508e-08
2.5965e-06
-1.69855e-08
2.60193e-06
2.23437e-08
2.59676e-06
-7.91374e-09
2.60052e-06
2.51968e-08
2.59443e-06
1.27582e-08
2.59396e-06
4.60937e-08
2.58748e-06
6.26541e-08
2.58338e-06
9.97388e-08
1.45694e-07
2.58187e-06
2.71065e-06
9.46192e-08
2.71519e-06
1.98958e-07
2.71508e-06
-1.69553e-08
2.71565e-06
-2.61414e-08
2.71753e-06
6.84505e-08
2.71747e-06
-4.08149e-08
2.72071e-06
5.81106e-08
2.71795e-06
-4.12229e-08
2.72281e-06
4.2898e-08
2.71931e-06
-1.48299e-08
2.72506e-06
2.80055e-08
2.72084e-06
-1.27687e-08
2.72608e-06
1.71081e-08
2.72157e-06
-3.40284e-09
2.72431e-06
2.24562e-08
2.71919e-06
1.78787e-08
2.71754e-06
4.77345e-08
2.71189e-06
6.83043e-08
2.7077e-06
1.03932e-07
1.47024e-07
2.70637e-06
2.84051e-06
9.1378e-08
2.84447e-06
1.94999e-07
2.84506e-06
-1.75424e-08
2.84515e-06
-2.62375e-08
2.84771e-06
6.58884e-08
2.84705e-06
-4.01538e-08
2.85106e-06
5.4103e-08
2.84758e-06
-3.77443e-08
2.85317e-06
3.73067e-08
2.84929e-06
-1.09454e-08
2.85526e-06
2.20313e-08
2.85128e-06
-8.78629e-09
2.85603e-06
1.23573e-08
2.85241e-06
2.16713e-10
2.85406e-06
2.08076e-08
2.84978e-06
2.21583e-08
2.84726e-06
5.02579e-08
2.84215e-06
7.34141e-08
2.83815e-06
1.07935e-07
1.48358e-07
2.83681e-06
2.97658e-06
8.76974e-08
2.97986e-06
1.91719e-07
2.98128e-06
-1.89693e-08
2.9808e-06
-2.57508e-08
2.98414e-06
6.25393e-08
2.98281e-06
-3.88195e-08
2.98762e-06
4.92936e-08
2.98347e-06
-3.35925e-08
2.98965e-06
3.112e-08
2.98563e-06
-6.91746e-09
2.99152e-06
1.61356e-08
2.98811e-06
-5.37211e-09
2.99214e-06
8.32162e-09
2.98951e-06
2.84948e-09
2.99017e-06
2.01519e-08
2.98647e-06
2.58601e-08
2.98335e-06
5.33701e-08
2.97857e-06
7.81937e-08
2.97491e-06
1.11602e-07
1.49744e-07
2.97352e-06
3.11915e-06
8.35523e-08
3.12164e-06
1.89226e-07
3.12405e-06
-2.138e-08
3.12289e-06
-2.45827e-08
3.12711e-06
5.83184e-08
3.12507e-06
-3.67822e-08
3.13065e-06
4.37169e-08
3.12596e-06
-2.89021e-08
3.13251e-06
2.45692e-08
3.12866e-06
-3.07378e-09
3.13414e-06
1.06608e-08
3.13159e-06
-2.8247e-09
3.13478e-06
5.12949e-09
3.13309e-06
4.54195e-09
3.133e-06
2.0241e-08
3.12956e-06
2.93001e-08
3.12607e-06
5.68597e-08
3.12145e-06
8.28147e-08
3.1182e-06
1.14855e-07
1.51148e-07
3.11679e-06
3.26854e-06
7.89183e-08
3.27014e-06
1.87626e-07
3.27367e-06
-2.49085e-08
3.27175e-06
-2.26616e-08
3.27689e-06
5.3184e-08
3.27418e-06
-3.40803e-08
3.2804e-06
3.74969e-08
3.27541e-06
-2.39117e-08
3.282e-06
1.79816e-08
3.27873e-06
1.97995e-10
3.28345e-06
5.94132e-09
3.28198e-06
-1.35731e-09
3.28433e-06
2.78556e-09
3.28345e-06
5.41989e-09
3.28294e-06
2.07476e-08
3.27952e-06
3.27242e-08
3.27565e-06
6.07269e-08
3.27088e-06
8.75842e-08
3.26832e-06
1.1742e-07
1.52657e-07
3.26681e-06
3.42507e-06
7.37757e-08
3.42568e-06
1.87015e-07
3.43044e-06
-2.96667e-08
3.42774e-06
-1.99608e-08
3.43377e-06
4.71603e-08
3.43053e-06
-3.08459e-08
3.43716e-06
3.08726e-08
3.43223e-06
-1.89817e-08
3.43843e-06
1.17791e-08
3.43615e-06
2.4742e-09
3.43983e-06
2.26558e-09
3.43954e-06
-1.06753e-09
3.44112e-06
1.20433e-09
3.44093e-06
5.60587e-09
3.44044e-06
2.12452e-08
3.43721e-06
3.59512e-08
3.43239e-06
6.5549e-08
3.42656e-06
9.34117e-08
3.42493e-06
1.19044e-07
1.54272e-07
3.42332e-06
3.58907e-06
6.81119e-08
3.58861e-06
1.87475e-07
3.59468e-06
-3.57273e-08
3.59123e-06
-1.65189e-08
3.59804e-06
4.03578e-08
3.59451e-06
-2.73183e-08
3.60119e-06
2.41918e-08
3.59676e-06
-1.45499e-08
3.60216e-06
6.37978e-09
3.60118e-06
3.44595e-09
3.60372e-06
-2.71115e-10
3.60449e-06
-1.83792e-09
3.60556e-06
1.33002e-10
3.6059e-06
5.27299e-09
3.60603e-06
2.11124e-08
3.60589e-06
3.60885e-08
3.60658e-06
6.48586e-08
3.59942e-06
1.00576e-07
3.58241e-06
1.36054e-07
1.5123e-07
3.58545e-06
3.76089e-06
6.19247e-08
3.75931e-06
1.89058e-07
3.76669e-06
-4.3103e-08
3.76263e-06
-1.24616e-08
3.77e-06
3.29883e-08
3.76652e-06
-2.38443e-08
3.77284e-06
1.7873e-08
3.76934e-06
-1.10443e-08
3.77363e-06
2.08467e-09
3.774e-06
3.07488e-09
3.77565e-06
-1.91956e-09
3.77707e-06
-3.25168e-09
3.77821e-06
-1.01508e-09
3.77896e-06
4.52802e-09
3.78034e-06
1.97292e-08
3.78412e-06
3.23126e-08
3.7897e-06
5.92772e-08
3.7971e-06
9.31802e-08
3.80863e-06
1.24515e-07
1.74341e-07
3.78552e-06
3.94089e-06
5.52264e-08
3.93818e-06
1.91767e-07
3.94678e-06
-5.171e-08
3.94236e-06
-8.04095e-09
3.94996e-06
2.53965e-08
3.947e-06
-2.08933e-08
3.95249e-06
1.23837e-08
3.95028e-06
-8.8265e-09
3.95335e-06
-9.91241e-10
3.95483e-06
1.59442e-09
3.95607e-06
-3.16034e-09
3.95765e-06
-4.8273e-09
3.95945e-06
-2.8176e-09
3.96171e-06
2.2728e-09
3.96277e-06
1.86676e-08
3.95401e-06
4.10658e-08
3.94363e-06
6.96614e-08
3.93666e-06
1.00153e-07
3.92684e-06
1.34334e-07
1.6796e-07
3.93322e-06
4.12943e-06
4.80469e-08
4.12565e-06
1.95548e-07
4.13529e-06
-6.13503e-08
4.13089e-06
-3.63771e-09
4.13825e-06
1.80289e-08
4.13635e-06
-1.89913e-08
4.1406e-06
8.13568e-09
4.13984e-06
-8.06719e-09
4.14186e-06
-3.00915e-09
4.14397e-06
-5.15654e-10
4.14537e-06
-4.56651e-09
4.14687e-06
-6.32332e-09
4.14727e-06
-3.21489e-09
4.14295e-06
6.59572e-09
4.13489e-06
2.67269e-08
4.13018e-06
4.57767e-08
4.12619e-06
7.36422e-08
4.12098e-06
1.05368e-07
4.11719e-06
1.38121e-07
1.64684e-07
4.12047e-06
4.32691e-06
4.0437e-08
4.32219e-06
2.00266e-07
4.33253e-06
-7.1683e-08
4.32865e-06
2.35599e-10
4.33529e-06
1.139e-08
4.33493e-06
-1.86293e-08
4.33771e-06
5.35898e-09
4.33829e-06
-8.64902e-09
4.33967e-06
-4.38611e-09
4.34183e-06
-2.67588e-09
4.34312e-06
-5.85839e-09
4.34107e-06
-4.27346e-09
4.33661e-06
1.24713e-09
4.33205e-06
1.11533e-08
4.32752e-06
3.12596e-08
4.32231e-06
5.09851e-08
4.31851e-06
7.74423e-08
4.31529e-06
1.08583e-07
4.31441e-06
1.39001e-07
1.62352e-07
4.31674e-06
4.53374e-06
3.2471e-08
4.52831e-06
2.05696e-07
4.53883e-06
-8.2201e-08
4.53612e-06
2.93877e-09
4.54151e-06
6.0085e-09
4.54309e-06
-2.02113e-08
4.5444e-06
4.04402e-09
4.5459e-06
-1.01497e-08
4.54719e-06
-5.67076e-09
4.54796e-06
-3.44602e-09
4.54683e-06
-4.73373e-09
4.54227e-06
2.90277e-10
4.53786e-06
5.65313e-09
4.53348e-06
1.5533e-08
4.52954e-06
3.52032e-08
4.52447e-06
5.60572e-08
4.52081e-06
8.11019e-08
4.51884e-06
1.10548e-07
4.51995e-06
1.3789e-07
1.60966e-07
4.52134e-06
4.75034e-06
2.42462e-08
4.74451e-06
2.11523e-07
4.75456e-06
-9.22448e-08
4.75373e-06
3.76799e-09
4.75743e-06
2.30548e-09
4.76111e-06
-2.38871e-08
4.76132e-06
3.83323e-09
4.763e-06
-1.18284e-08
4.76426e-06
-6.93268e-09
4.76161e-06
-8.01523e-10
4.75861e-06
-1.73323e-09
4.75414e-06
4.76623e-09
4.74938e-06
1.04138e-08
4.74518e-06
1.97338e-08
4.74154e-06
3.88381e-08
4.73686e-06
6.07388e-08
4.7333e-06
8.46604e-08
4.73231e-06
1.11534e-07
4.73365e-06
1.36554e-07
1.59319e-07
4.7353e-06
4.97716e-06
1.58821e-08
4.97134e-06
2.17341e-07
4.98012e-06
-1.01021e-07
4.98187e-06
2.01949e-09
4.98366e-06
5.1162e-10
4.98929e-06
-2.95161e-08
4.98899e-06
4.13722e-09
4.98969e-06
-1.25345e-08
4.98982e-06
-7.05518e-09
4.98435e-06
4.6626e-09
4.98061e-06
2.00826e-09
4.97649e-06
8.89072e-09
4.97163e-06
1.52711e-08
4.96734e-06
2.40191e-08
4.96394e-06
4.22388e-08
4.95982e-06
6.48623e-08
4.95648e-06
8.7998e-08
4.95609e-06
1.11922e-07
4.95716e-06
1.35491e-07
1.57002e-07
4.95947e-06
5.21468e-06
7.51563e-09
5.20935e-06
2.22675e-07
5.21601e-06
-1.0768e-07
5.22088e-06
-2.8536e-09
5.22087e-06
5.21423e-10
5.22804e-06
-3.66838e-08
5.22771e-06
4.46445e-09
5.22611e-06
-1.09276e-08
5.22392e-06
-4.87152e-09
5.21773e-06
1.08588e-08
5.21335e-06
6.38747e-09
5.20983e-06
1.24066e-08
5.20503e-06
2.00701e-08
5.20048e-06
2.85731e-08
5.1972e-06
4.55138e-08
5.19371e-06
6.83583e-08
5.19089e-06
9.0817e-08
5.19056e-06
1.12249e-07
5.19169e-06
1.34363e-07
1.54194e-07
5.1945e-06
5.46341e-06
-7.08523e-10
5.45907e-06
2.27019e-07
5.46289e-06
-1.11504e-07
5.47098e-06
-1.09384e-08
5.46976e-06
1.7349e-09
5.47773e-06
-4.46522e-08
5.47769e-06
4.51081e-09
5.47176e-06
-5.00201e-09
5.46856e-06
-1.67386e-09
5.46255e-06
1.6874e-08
5.45757e-06
1.13603e-08
5.45455e-06
1.54264e-08
5.44998e-06
2.46455e-08
5.44516e-06
3.33929e-08
5.44186e-06
4.88152e-08
5.43896e-06
7.12526e-08
5.43689e-06
9.28897e-08
5.43641e-06
1.12727e-07
5.43773e-06
1.33044e-07
1.51014e-07
5.44091e-06
5.7239e-06
-8.64684e-09
5.72105e-06
2.29865e-07
5.72158e-06
-1.12035e-07
5.73234e-06
-2.16938e-08
5.73066e-06
3.41663e-09
5.73762e-06
-5.162e-08
5.73553e-06
6.60667e-09
5.72761e-06
2.91129e-09
5.72469e-06
1.24721e-09
5.71956e-06
2.20085e-08
5.71391e-06
1.70064e-08
5.71107e-06
1.82683e-08
5.70693e-06
2.87824e-08
5.70197e-06
3.8358e-08
5.69851e-06
5.22728e-08
5.69613e-06
7.36369e-08
5.69484e-06
9.41781e-08
5.69434e-06
1.13225e-07
5.6958e-06
1.3158e-07
1.47564e-07
5.69926e-06
5.99671e-06
-1.61689e-08
5.99588e-06
2.30702e-07
5.99294e-06
-1.09099e-07
6.00509e-06
-3.38452e-08
6.00219e-06
6.31611e-09
6.00528e-06
-5.47073e-08
6.00372e-06
8.16964e-09
5.99588e-06
1.07489e-08
5.9934e-06
3.72556e-09
5.98916e-06
2.62477e-08
5.98297e-06
2.32017e-08
5.97991e-06
2.13213e-08
5.97638e-06
3.23186e-08
5.97147e-06
4.32664e-08
5.96779e-06
5.59546e-08
5.96581e-06
7.56162e-08
5.96519e-06
9.48003e-08
5.96494e-06
1.13473e-07
5.96652e-06
1.30002e-07
1.43955e-07
5.97012e-06
6.28248e-06
-2.31648e-08
6.28405e-06
2.29136e-07
6.27786e-06
-1.02912e-07
6.28951e-06
-4.54862e-08
6.2853e-06
1.05176e-08
6.28647e-06
-5.58688e-08
6.28604e-06
8.59681e-09
6.27773e-06
1.90577e-08
6.27512e-06
6.33558e-09
6.27186e-06
2.95038e-08
6.26534e-06
2.97243e-08
6.26171e-06
2.49469e-08
6.25879e-06
3.52419e-08
6.25421e-06
4.78452e-08
6.25032e-06
5.98494e-08
6.24864e-06
7.72937e-08
6.24849e-06
9.49492e-08
6.24874e-06
1.13226e-07
6.25047e-06
1.28265e-07
1.40275e-07
6.25415e-06
6.58185e-06
-2.95409e-08
6.58605e-06
2.24929e-07
6.57706e-06
-9.39182e-08
6.58697e-06
-5.54026e-08
6.58277e-06
1.47272e-08
6.58206e-06
-5.51608e-08
6.58245e-06
8.20818e-09
6.57363e-06
2.78695e-08
6.57041e-06
9.55535e-09
6.56819e-06
3.1731e-08
6.56163e-06
3.62792e-08
6.5572e-06
2.9381e-08
6.55473e-06
3.77075e-08
6.55076e-06
5.18198e-08
6.54677e-06
6.3834e-08
6.54527e-06
7.87992e-08
6.54542e-06
9.47931e-08
6.54628e-06
1.1237e-07
6.54828e-06
1.26266e-07
1.36553e-07
6.552e-06
6.89547e-06
-3.52249e-08
6.90231e-06
2.18091e-07
6.89119e-06
-8.28004e-08
6.89917e-06
-6.33823e-08
6.89494e-06
1.89651e-08
6.89217e-06
-5.23938e-08
6.89316e-06
7.22217e-09
6.88421e-06
3.68145e-08
6.87998e-06
1.37879e-08
6.87869e-06
3.30192e-08
6.87246e-06
4.25107e-08
6.86714e-06
3.47009e-08
6.86485e-06
3.99976e-08
6.86165e-06
5.50136e-08
6.85782e-06
6.76674e-08
6.85637e-06
8.02513e-08
6.85669e-06
9.44702e-08
6.85816e-06
1.10906e-07
6.86054e-06
1.23885e-07
1.32757e-07
6.86433e-06
7.22408e-06
-4.01664e-08
7.23333e-06
2.08839e-07
7.22096e-06
-7.04303e-08
7.22693e-06
-6.93542e-08
7.22263e-06
2.32626e-08
7.21742e-06
-4.71769e-08
7.21869e-06
5.95353e-09
7.21008e-06
4.54198e-08
7.20459e-06
1.92771e-08
7.20397e-06
3.36409e-08
7.19843e-06
4.80476e-08
7.19233e-06
4.08037e-08
7.18986e-06
4.24672e-08
7.18748e-06
5.73963e-08
7.18412e-06
7.10234e-08
7.18267e-06
8.17068e-08
7.18304e-06
9.40977e-08
7.18502e-06
1.08921e-07
7.18787e-06
1.21036e-07
1.28814e-07
7.19182e-06
7.56839e-06
-4.43329e-08
7.57981e-06
1.9742e-07
7.56695e-06
-5.75717e-08
7.57121e-06
-7.36137e-08
7.56671e-06
2.77676e-08
7.55856e-06
-3.90253e-08
7.55964e-06
4.87406e-09
7.5519e-06
5.31502e-08
7.54509e-06
2.60958e-08
7.54469e-06
3.40362e-08
7.54019e-06
5.25459e-08
7.53357e-06
4.74285e-08
7.53058e-06
4.54515e-08
7.52888e-06
5.90989e-08
7.52633e-06
7.35714e-08
7.52489e-06
8.3152e-08
7.52525e-06
9.37395e-08
7.52761e-06
1.06558e-07
7.53095e-06
1.17692e-07
1.24635e-07
7.53513e-06
7.92918e-06
-4.77041e-08
7.9424e-06
1.84203e-07
7.92991e-06
-4.50816e-08
7.93335e-06
-7.70559e-08
7.92799e-06
3.31324e-08
7.91631e-06
-2.73532e-08
7.91674e-06
4.44696e-09
7.91034e-06
5.95506e-08
7.90233e-06
3.41061e-08
7.90163e-06
3.47388e-08
7.89834e-06
5.58377e-08
7.89161e-06
5.4156e-08
7.88788e-06
4.91758e-08
7.88661e-06
6.0369e-08
7.88508e-06
7.51039e-08
7.88377e-06
8.44591e-08
7.88413e-06
9.33886e-08
7.8867e-06
1.03982e-07
7.89049e-06
1.139e-07
1.20146e-07
7.89498e-06
8.30723e-06
-5.02518e-08
8.32183e-06
1.69607e-07
8.3124e-06
-3.56552e-08
8.31533e-06
-7.99876e-08
8.30708e-06
4.13845e-08
8.29149e-06
-1.17658e-08
8.29086e-06
5.07474e-09
8.28609e-06
6.43215e-08
8.27719e-06
4.30132e-08
8.27565e-06
3.62756e-08
8.27352e-06
5.79683e-08
8.26716e-06
6.05101e-08
8.26268e-06
5.36607e-08
8.26153e-06
6.15171e-08
8.26101e-06
7.56243e-08
8.26009e-06
8.53846e-08
8.26049e-06
9.29855e-08
8.26315e-06
1.01323e-07
8.26729e-06
1.09762e-07
1.15312e-07
8.27212e-06
8.70336e-06
-5.19467e-08
8.72027e-06
1.5269e-07
8.71453e-06
-2.99139e-08
8.71744e-06
-8.28992e-08
8.70383e-06
5.50013e-08
8.68496e-06
7.10328e-09
8.68302e-06
7.01469e-09
8.67991e-06
6.74299e-08
8.67049e-06
5.24341e-08
8.66771e-06
3.9057e-08
8.66649e-06
5.91815e-08
8.66093e-06
6.60752e-08
8.65588e-06
5.87126e-08
8.65455e-06
6.28411e-08
8.65487e-06
7.53077e-08
8.65456e-06
8.5695e-08
8.65515e-06
9.2395e-08
8.65782e-06
9.86483e-08
8.66219e-06
1.05401e-07
1.10158e-07
8.66734e-06
9.11838e-06
-5.27049e-08
9.1419e-06
1.29164e-07
9.1379e-06
-2.59096e-08
9.13006e-06
-7.5061e-08
9.11765e-06
6.74127e-08
9.09786e-06
2.68887e-08
9.09426e-06
1.06159e-08
9.09253e-06
6.91612e-08
9.08308e-06
6.1888e-08
9.0788e-06
4.3336e-08
9.07811e-06
5.98656e-08
9.07364e-06
7.05536e-08
9.06838e-06
6.39687e-08
9.06669e-06
6.45311e-08
9.06752e-06
7.44793e-08
9.06799e-06
8.52257e-08
9.06894e-06
9.14372e-08
9.07164e-06
9.59525e-08
9.07612e-06
1.00925e-07
1.0475e-07
9.08152e-06
9.55305e-06
-5.22935e-08
9.57246e-06
1.09748e-07
9.55531e-06
-8.75968e-09
9.5528e-06
-7.25435e-08
9.54994e-06
7.02664e-08
9.53131e-06
4.5525e-08
9.52559e-06
1.63311e-08
9.52476e-06
6.99906e-08
9.5158e-06
7.08517e-08
9.50999e-06
4.91465e-08
9.50933e-06
6.0522e-08
9.50607e-06
7.38151e-08
9.50105e-06
6.89924e-08
9.49896e-06
6.66221e-08
9.49991e-06
7.35252e-08
9.5012e-06
8.39367e-08
9.50269e-06
8.99416e-08
9.50548e-06
9.3164e-08
9.51e-06
9.64109e-08
9.91624e-08
9.51559e-06
1.00084e-05
-5.05446e-08
1.00141e-05
1.04054e-07
1.00003e-05
5.05931e-09
1.00007e-05
-7.29647e-08
1.00027e-05
6.82018e-08
9.98592e-06
6.23488e-08
9.97789e-06
2.43635e-08
9.97753e-06
7.03518e-08
9.96946e-06
7.89234e-08
9.96232e-06
5.62815e-08
9.96118e-06
6.16677e-08
9.95908e-06
7.59119e-08
9.95469e-06
7.33859e-08
9.95229e-06
6.90139e-08
9.95312e-06
7.27023e-08
9.9551e-06
8.19532e-08
9.95726e-06
8.77874e-08
9.96026e-06
9.01548e-08
9.9648e-06
9.18769e-08
9.34567e-08
9.9705e-06
1.04856e-05
-4.75238e-08
1.04849e-05
1.04791e-07
1.04775e-05
1.24332e-08
1.04741e-05
-6.95744e-08
1.0477e-05
6.53302e-08
1.04621e-05
7.72242e-08
1.04521e-05
3.43466e-08
1.04517e-05
7.07743e-08
1.04449e-05
8.57442e-08
1.04368e-05
6.43958e-08
1.04347e-05
6.37131e-08
1.04336e-05
7.70749e-08
1.04301e-05
7.68863e-08
1.04276e-05
7.15007e-08
1.04282e-05
7.20938e-08
1.04306e-05
7.9511e-08
1.04335e-05
8.49562e-08
1.04368e-05
8.67832e-08
1.04414e-05
8.72752e-08
8.77063e-08
1.04472e-05
1.09864e-05
-4.38955e-08
1.10205e-05
7.06673e-08
1.09928e-05
4.01888e-08
1.09714e-05
-4.82559e-08
1.09736e-05
6.31632e-08
1.09611e-05
8.97446e-08
1.09494e-05
4.6043e-08
1.09483e-05
7.18807e-08
1.09428e-05
9.11998e-08
1.09342e-05
7.29926e-08
1.0931e-05
6.69088e-08
1.09304e-05
7.76885e-08
1.0928e-05
7.93345e-08
1.09257e-05
7.37697e-08
1.09261e-05
7.16755e-08
1.09288e-05
7.67994e-08
1.09323e-05
8.14961e-08
1.09362e-05
8.2926e-08
1.09409e-05
8.25009e-08
8.19276e-08
1.09467e-05
1.15104e-05
-3.89214e-08
1.15124e-05
6.86894e-08
1.15049e-05
4.76063e-08
1.14934e-05
-3.66693e-08
1.14953e-05
6.11931e-08
1.14841e-05
1.00995e-07
1.14709e-05
5.92473e-08
1.14686e-05
7.4116e-08
1.14645e-05
9.53315e-08
1.1456e-05
8.1479e-08
1.14517e-05
7.1239e-08
1.14511e-05
7.82818e-08
1.14496e-05
8.07953e-08
1.1448e-05
7.54365e-08
1.14481e-05
7.1518e-08
1.1451e-05
7.39526e-08
1.14549e-05
7.75497e-08
1.14593e-05
7.85614e-08
1.14643e-05
7.7487e-08
7.60617e-08
1.14702e-05
1.20602e-05
-3.33268e-08
1.20645e-05
6.44631e-08
1.20514e-05
6.06205e-08
1.20398e-05
-2.50804e-08
1.2042e-05
5.90457e-08
1.20322e-05
1.10775e-07
1.20177e-05
7.37386e-08
1.20139e-05
7.79917e-08
1.20107e-05
9.85072e-08
1.20028e-05
8.93375e-08
1.19975e-05
7.65339e-08
1.19965e-05
7.92769e-08
1.19959e-05
8.14407e-08
1.1995e-05
7.62765e-08
1.19952e-05
7.13648e-08
1.19981e-05
7.10508e-08
1.20024e-05
7.32153e-08
1.20073e-05
7.36869e-08
1.20127e-05
7.2141e-08
7.00211e-08
1.20187e-05
1.26363e-05
-2.70419e-08
1.2638e-05
6.27705e-08
1.26279e-05
7.07427e-08
1.26133e-05
-1.05389e-08
1.26142e-05
5.81875e-08
1.26063e-05
1.18713e-07
1.2591e-05
8.89781e-08
1.25852e-05
8.38188e-08
1.25825e-05
1.01189e-07
1.25757e-05
9.61655e-08
1.25697e-05
8.24913e-08
1.25681e-05
8.09131e-08
1.2568e-05
8.15592e-08
1.25678e-05
7.6427e-08
1.25685e-05
7.0697e-08
1.25713e-05
6.82561e-08
1.25759e-05
6.85634e-08
1.25812e-05
6.83943e-08
1.25869e-05
6.64175e-08
6.3753e-08
1.25932e-05
1.32402e-05
-2.02882e-08
1.32493e-05
5.36218e-08
1.32363e-05
8.37602e-08
1.32151e-05
1.06762e-08
1.32134e-05
5.9842e-08
1.32074e-05
1.2473e-07
1.31921e-05
1.04339e-07
1.31841e-05
9.1773e-08
1.31813e-05
1.03991e-07
1.31756e-05
1.01885e-07
1.31694e-05
8.87191e-08
1.3167e-05
8.32896e-08
1.3167e-05
8.152e-08
1.31675e-05
7.59623e-08
1.31689e-05
6.93109e-08
1.31717e-05
6.5414e-08
1.31767e-05
6.3603e-08
1.31822e-05
6.2828e-08
1.31884e-05
6.02658e-08
5.71721e-08
1.3195e-05
1.38731e-05
-1.32048e-08
1.38824e-05
4.42986e-08
1.38699e-05
9.6307e-08
1.38463e-05
3.41926e-08
1.38417e-05
6.44885e-08
1.38369e-05
1.29498e-07
1.3822e-05
1.1926e-07
1.3812e-05
1.01768e-07
1.38084e-05
1.07553e-07
1.38037e-05
1.06658e-07
1.37977e-05
9.47378e-08
1.37946e-05
8.63444e-08
1.37945e-05
8.16238e-08
1.37955e-05
7.49727e-08
1.37975e-05
6.72892e-08
1.38007e-05
6.21926e-08
1.3806e-05
5.83217e-08
1.38117e-05
5.71565e-08
1.38183e-05
5.36268e-08
5.02129e-08
1.38253e-05
1.45364e-05
-5.91459e-09
1.45317e-05
4.89858e-08
1.4528e-05
9.99521e-08
1.45082e-05
5.39927e-08
1.45004e-05
7.22998e-08
1.44961e-05
1.33838e-07
1.44821e-05
1.33256e-07
1.44704e-05
1.13479e-07
1.44655e-05
1.12401e-07
1.44613e-05
1.10906e-07
1.44558e-05
1.0023e-07
1.44522e-05
8.9906e-08
1.44518e-05
8.2082e-08
1.44531e-05
7.36865e-08
1.44556e-05
6.47945e-08
1.44594e-05
5.83142e-08
1.44649e-05
5.28203e-08
1.44709e-05
5.11684e-08
1.4478e-05
4.65988e-08
4.27668e-08
1.44854e-05
1.52318e-05
1.18315e-09
1.52305e-05
5.02518e-08
1.52229e-05
1.07618e-07
1.52014e-05
7.54684e-08
1.5191e-05
8.27224e-08
1.51863e-05
1.38441e-07
1.51735e-05
1.46129e-07
1.51605e-05
1.26497e-07
1.5154e-05
1.18901e-07
1.51497e-05
1.15187e-07
1.51448e-05
1.05137e-07
1.5141e-05
9.37014e-08
1.51401e-05
8.29663e-08
1.51414e-05
7.23594e-08
1.51443e-05
6.18923e-08
1.51489e-05
5.3723e-08
1.51544e-05
4.7359e-08
1.51615e-05
4.4078e-08
1.51685e-05
3.96103e-08
3.46113e-08
1.51766e-05
1.59604e-05
8.06453e-09
1.59613e-05
4.94169e-08
1.59496e-05
1.193e-07
1.59281e-05
9.69852e-08
1.59148e-05
9.60405e-08
1.59093e-05
1.43938e-07
1.58975e-05
1.57932e-07
1.58837e-05
1.40313e-07
1.58753e-05
1.27237e-07
1.58704e-05
1.20073e-07
1.5866e-05
1.09606e-07
1.58622e-05
9.74618e-08
1.58609e-05
8.42971e-08
1.5862e-05
7.11893e-08
1.58652e-05
5.87084e-08
1.58703e-05
4.86882e-08
1.58762e-05
4.14367e-08
1.58839e-05
3.63258e-08
1.58918e-05
3.17903e-08
2.64318e-08
1.58999e-05
1.67235e-05
1.51402e-08
1.67053e-05
6.76401e-08
1.67082e-05
1.16377e-07
1.66901e-05
1.15143e-07
1.66736e-05
1.12541e-07
1.66666e-05
1.50909e-07
1.66556e-05
1.68915e-07
1.66414e-05
1.54551e-07
1.66312e-05
1.37416e-07
1.66251e-05
1.26127e-07
1.66207e-05
1.14077e-07
1.66171e-05
1.01018e-07
1.66154e-05
8.60499e-08
1.66163e-05
7.02871e-08
1.66195e-05
5.54572e-08
1.66248e-05
4.34064e-08
1.66316e-05
3.46614e-08
1.66398e-05
2.81038e-08
1.66488e-05
2.27938e-08
1.80365e-08
1.66572e-05
1.75244e-05
2.10555e-08
1.75367e-05
5.54088e-08
1.75154e-05
1.37654e-07
1.74875e-05
1.43042e-07
1.74689e-05
1.31155e-07
1.74599e-05
1.59856e-07
1.74493e-05
1.79515e-07
1.74349e-05
1.68987e-07
1.7423e-05
1.49319e-07
1.74155e-05
1.33669e-07
1.74104e-05
1.191e-07
1.7407e-05
1.04436e-07
1.74049e-05
8.81618e-08
1.74055e-05
6.97368e-08
1.74086e-05
5.23146e-08
1.74142e-05
3.7852e-08
1.74216e-05
2.71657e-08
1.74306e-05
1.91866e-08
1.74403e-05
1.30864e-08
8.22965e-09
1.74501e-05
1.83618e-05
2.75517e-08
1.834e-05
7.72768e-08
1.83425e-05
1.3515e-07
1.83244e-05
1.6114e-07
1.83031e-05
1.52405e-07
1.82915e-05
1.71496e-07
1.82808e-05
1.9026e-07
1.82662e-05
1.83558e-07
1.82527e-05
1.62828e-07
1.82433e-05
1.43042e-07
1.82371e-05
1.25282e-07
1.82334e-05
1.08107e-07
1.82309e-05
9.06886e-08
1.8231e-05
6.96449e-08
1.82339e-05
4.94073e-08
1.82397e-05
3.20943e-08
1.82478e-05
1.90412e-08
1.82575e-05
9.45382e-09
1.82684e-05
2.18445e-09
-2.80505e-09
1.82795e-05
1.92406e-05
3.33374e-08
1.9235e-05
8.29315e-08
1.92168e-05
1.53331e-07
1.92002e-05
1.77753e-07
1.91774e-05
1.75203e-07
1.91631e-05
1.85801e-07
1.91514e-05
2.01921e-07
1.91365e-05
1.98431e-07
1.91215e-05
1.7788e-07
1.911e-05
1.54459e-07
1.91023e-05