/*--------------------------------*- C++ -*----------------------------------*\
| =========                 |                                                 |
| \\      /  F ield         | OpenFOAM: The Open Source CFD Toolbox           |
|  \\    /   O peration     | Version:  v2012                                 |
|   \\  /    A nd           | Website:  www.openfoam.com                      |
|    \\/     M anipulation  |                                                 |
\*---------------------------------------------------------------------------*/
FoamFile
{
    version     2.0;
    format      ascii;
    class       volVectorField;
    location    "4.7";
    object      U;
}
// * * * * * * * * * * * * * * * * * * * * * * * * * * * * * * * * * * * * * //

dimensions      [0 1 -1 0 0 0 0];


internalField   nonuniform List<vector> 
17600
(
(0.840683 0.00532325 0)
(1.16548 -0.00272047 0)
(0.820125 -0.00179572 0)
(1.1506 0.00172605 0)
(0.830917 -0.000461922 0)
(1.13688 -0.000335507 0)
(0.836103 0.000693828 0)
(1.12841 -0.00024252 0)
(0.844483 0.0009167 0)
(1.11814 -0.000923309 0)
(0.850075 0.000550984 0)
(1.11019 -0.00124882 0)
(0.854363 0.000341619 0)
(1.10418 -0.00125346 0)
(0.855828 0.000521875 0)
(1.10101 -0.00103514 0)
(0.852531 0.00135229 0)
(1.09981 -0.000144076 0)
(0.843024 0.00308341 0)
(1.09869 0.000556361 0)
(0.848877 0.00520124 0)
(1.15114 -0.00238971 0)
(0.831032 -0.00187986 0)
(1.13565 0.00181486 0)
(0.846573 -0.000539155 0)
(1.12023 -0.000161086 0)
(0.854784 0.000560761 0)
(1.10835 -8.32486e-05 0)
(0.867692 0.000792134 0)
(1.09367 -0.000759453 0)
(0.879035 0.000404714 0)
(1.07973 -0.0010818 0)
(0.89141 0.000189509 0)
(1.06469 -0.00109954 0)
(0.905316 0.000423936 0)
(1.04702 -0.000943616 0)
(0.921843 0.00156689 0)
(1.0222 -0.000264425 0)
(0.94345 0.00445279 0)
(0.983622 -0.000255589 0)
(0.865308 0.00511315 0)
(1.12765 -0.00207012 0)
(0.853817 -0.00194394 0)
(1.10766 0.00186162 0)
(0.874778 -0.000577484 0)
(1.09045 -6.71127e-05 0)
(0.887065 0.000490352 0)
(1.07478 -3.33995e-05 0)
(0.904804 0.000772664 0)
(1.05658 -0.000729157 0)
(0.920847 0.000430563 0)
(1.0392 -0.00111586 0)
(0.937127 0.000304499 0)
(1.02158 -0.00123541 0)
(0.952824 0.000673313 0)
(1.00437 -0.00118921 0)
(0.966175 0.00195845 0)
(0.9877 -0.000605591 0)
(0.974741 0.00479313 0)
(0.973323 0.000609721 0)
(0.887702 0.00510148 0)
(1.09969 -0.00185685 0)
(0.885248 -0.00191161 0)
(1.07328 0.001806 0)
(0.908625 -0.000544766 0)
(1.0562 -8.11594e-05 0)
(0.922264 0.000540204 0)
(1.03984 -0.000122905 0)
(0.940595 0.000881053 0)
(1.02339 -0.000850415 0)
(0.955416 0.000588422 0)
(1.00976 -0.00128374 0)
(0.967685 0.000518216 0)
(0.998351 -0.00143984 0)
(0.976386 0.000925432 0)
(0.990011 -0.00138628 0)
(0.980546 0.0022003 0)
(0.984036 -0.00067567 0)
(0.980039 0.00492906 0)
(0.979196 0.00156647 0)
(0.912684 0.00514011 0)
(1.07188 -0.00174861 0)
(0.918911 -0.00177379 0)
(1.04088 0.00168406 0)
(0.940258 -0.000466404 0)
(1.02704 -0.000152489 0)
(0.951346 0.000644401 0)
(1.01405 -0.000261966 0)
(0.965918 0.00100549 0)
(1.00354 -0.00099369 0)
(0.975929 0.000719098 0)
(0.996696 -0.00141562 0)
(0.982427 0.000649952 0)
(0.991893 -0.00154498 0)
(0.985498 0.00104438 0)
(0.988891 -0.00143748 0)
(0.985514 0.00231139 0)
(0.986121 -0.000593853 0)
(0.983266 0.00501914 0)
(0.982222 0.00249284 0)
(0.936753 0.00520368 0)
(1.04814 -0.00172835 0)
(0.94866 -0.0015647 0)
(1.01686 0.00154825 0)
(0.96466 -0.000385264 0)
(1.00837 -0.000227468 0)
(0.971147 0.000739741 0)
(1.00066 -0.000381263 0)
(0.9807 0.00107802 0)
(0.996114 -0.00109496 0)
(0.986393 0.000774534 0)
(0.994212 -0.0014833 0)
(0.989395 0.000700718 0)
(0.99262 -0.00158123 0)
(0.990134 0.00109641 0)
(0.99112 -0.00142589 0)
(0.989013 0.00236468 0)
(0.988714 -0.000443049 0)
(0.986486 0.00507317 0)
(0.984979 0.00334209 0)
(0.957202 0.00526964 0)
(1.03063 -0.0017666 0)
(0.971059 -0.00133352 0)
(1.00327 0.00143504 0)
(0.980949 -0.00032827 0)
(0.999841 -0.000279086 0)
(0.983294 0.000801102 0)
(0.99668 -0.000463307 0)
(0.989037 0.00109848 0)
(0.995703 -0.00116096 0)
(0.992296 0.000781631 0)
(0.996026 -0.00151977 0)
(0.993857 0.000717901 0)
(0.995373 -0.00159008 0)
(0.99379 0.00112531 0)
(0.99404 -0.00137948 0)
(0.992232 0.00237924 0)
(0.991559 -0.000219053 0)
(0.989489 0.00505686 0)
(0.987975 0.00415596 0)
(0.972697 0.0053181 0)
(1.01937 -0.00183023 0)
(0.985728 -0.0011216 0)
(0.998033 0.00135598 0)
(0.990884 -0.000297588 0)
(0.99783 -0.000308536 0)
(0.990746 0.000831932 0)
(0.997427 -0.000519309 0)
(0.994358 0.00109141 0)
(0.997831 -0.00120985 0)
(0.996471 0.000769997 0)
(0.998815 -0.00154399 0)
(0.997454 0.000726085 0)
(0.998302 -0.00158248 0)
(0.997002 0.00114276 0)
(0.996873 -0.00129543 0)
(0.995157 0.00235948 0)
(0.994284 7.92451e-05 0)
(0.992269 0.00498524 0)
(0.990804 0.00493525 0)
(0.983284 0.00533801 0)
(1.0129 -0.00189429 0)
(0.994219 -0.000950258 0)
(0.99749 0.00130263 0)
(0.996735 -0.000281717 0)
(0.99862 -0.00032782 0)
(0.995577 0.000844844 0)
(0.999558 -0.000562169 0)
(0.99816 0.00107604 0)
(1.00021 -0.00124911 0)
(0.999653 0.0007529 0)
(1.00127 -0.00155869 0)
(1.00032 0.000730061 0)
(1.00072 -0.00155673 0)
(0.999622 0.00114783 0)
(0.999211 -0.00117133 0)
(0.997596 0.00230568 0)
(0.996563 0.000445898 0)
(0.994655 0.00488867 0)
(0.993218 0.00565819 0)
(0.989915 0.00532891 0)
(1.00942 -0.00194608 0)
(0.998631 -0.000821597 0)
(0.998602 0.00126091 0)
(1.00016 -0.000269148 0)
(0.999976 -0.000346152 0)
(0.998754 0.000849583 0)
(1.00151 -0.000598687 0)
(1.00083 0.00106073 0)
(1.00203 -0.00128011 0)
(1.0019 0.000733693 0)
(1.00301 -0.00156272 0)
(1.00234 0.000726863 0)
(1.00244 -0.00150974 0)
(1.00152 0.0011338 0)
(1.00091 -0.00100945 0)
(0.999417 0.00222298 0)
(0.998284 0.000858815 0)
(0.996518 0.0047893 0)
(0.99513 0.00629712 0)
(0.993817 0.00529659 0)
(1.00756 -0.00198196 0)
(1.00072 -0.000727167 0)
(0.999782 0.00122111 0)
(1.00213 -0.000254613 0)
(1.00104 -0.000366799 0)
(1.00074 0.000850896 0)
(1.00285 -0.000631379 0)
(1.00252 0.00104695 0)
(1.00317 -0.00130282 0)
(1.00328 0.000711435 0)
(1.00406 -0.00155464 0)
(1.00359 0.000710942 0)
(1.00349 -0.00143926 0)
(1.00273 0.00109284 0)
(1.00202 -0.00081288 0)
(1.00065 0.00211576 0)
(0.999492 0.00129412 0)
(0.997888 0.00471284 0)
(0.996579 0.00683253 0)
(0.99605 0.00524781 0)
(1.00651 -0.00200264 0)
(1.00164 -0.000656313 0)
(1.00056 0.00117941 0)
(1.00322 -0.000237993 0)
(1.00169 -0.00038951 0)
(1.00188 0.000850354 0)
(1.00364 -0.00066092 0)
(1.00349 0.00103316 0)
(1.00378 -0.00131679 0)
(1.00402 0.000683603 0)
(1.00459 -0.00153301 0)
(1.00426 0.000677167 0)
(1.00406 -0.00134418 0)
(1.00342 0.00102053 0)
(1.00269 -0.000588323 0)
(1.00145 0.00199466 0)
(1.00031 0.0017259 0)
(0.998882 0.00468218 0)
(0.997677 0.00725498 0)
(0.997337 0.00518739 0)
(1.00588 -0.00201004 0)
(1.00204 -0.000601035 0)
(1.00098 0.00113581 0)
(1.0038 -0.000221118 0)
(1.00204 -0.000413018 0)
(1.0025 0.000848072 0)
(1.00407 -0.000687207 0)
(1.00399 0.00101709 0)
(1.00407 -0.00132116 0)
(1.00437 0.00064693 0)
(1.00482 -0.00149556 0)
(1.00457 0.00062182 0)
(1.00433 -0.00122588 0)
(1.00379 0.00092002 0)
(1.00308 -0.00034644 0)
(1.00196 0.00187695 0)
(1.00087 0.00212702 0)
(0.999624 0.00470969 0)
(0.998535 0.007568 0)
(0.998098 0.00511805 0)
(1.00548 -0.00200604 0)
(1.00222 -0.000556718 0)
(1.00118 0.00109166 0)
(1.00409 -0.000205783 0)
(1.00223 -0.000436166 0)
(1.00283 0.000843148 0)
(1.00429 -0.000709433 0)
(1.00424 0.000996183 0)
(1.00419 -0.00131407 0)
(1.00451 0.000597644 0)
(1.00489 -0.00144019 0)
(1.0047 0.000543994 0)
(1.00445 -0.00108754 0)
(1.00399 0.000797131 0)
(1.0033 -8.65476e-05 0)
(1.00231 0.00178523 0)
(1.00128 0.00247894 0)
(1.0002 0.00479559 0)
(0.999231 0.00778753 0)
(0.998557 0.00504118 0)
(1.00522 -0.00199213 0)
(1.00231 -0.000521144 0)
(1.00127 0.00104844 0)
(1.00425 -0.000193531 0)
(1.00232 -0.000457244 0)
(1.00302 0.000833869 0)
(1.0044 -0.000726316 0)
(1.00438 0.000967497 0)
(1.00423 -0.00129332 0)
(1.00458 0.000533088 0)
(1.0049 -0.00136638 0)
(1.00475 0.000444923 0)
(1.00448 -0.000933288 0)
(1.0041 0.000664043 0)
(1.00343 0.000175247 0)
(1.00255 0.00173153 0)
(1.00158 0.00277684 0)
(1.00067 0.00493163 0)
(0.999813 0.00793611 0)
(0.998836 0.00495748 0)
(1.00503 -0.00196917 0)
(1.00238 -0.000493631 0)
(1.00131 0.00100808 0)
(1.00433 -0.000186485 0)
(1.00236 -0.000473838 0)
(1.00312 0.000818711 0)
(1.00446 -0.000735941 0)
(1.00445 0.00092759 0)
(1.00424 -0.00125702 0)
(1.00461 0.000451889 0)
(1.00489 -0.00127459 0)
(1.00478 0.000327521 0)
(1.00449 -0.000768959 0)
(1.00418 0.000536636 0)
(1.00351 0.000408452 0)
(1.00275 0.00171832 0)
(1.00183 0.00302658 0)
(1.00107 0.00510417 0)
(1.00031 0.00803683 0)
(0.99901 0.00486733 0)
(1.00487 -0.00193755 0)
(1.00244 -0.000474262 0)
(1.00131 0.000972145 0)
(1.00437 -0.000185667 0)
(1.00238 -0.00048563 0)
(1.00319 0.000796131 0)
(1.00448 -0.00073634 0)
(1.00449 0.000873753 0)
(1.00423 -0.00120382 0)
(1.00463 0.000353251 0)
(1.00487 -0.00116592 0)
(1.00481 0.000198074 0)
(1.0045 -0.000604896 0)
(1.00424 0.000428375 0)
(1.00358 0.000606468 0)
(1.00292 0.00175095 0)
(1.00206 0.00323803 0)
(1.00143 0.00529637 0)
(1.00075 0.00811134 0)
(0.999126 0.00477094 0)
(1.00474 -0.00189741 0)
(1.0025 -0.000463286 0)
(1.00129 0.000941765 0)
(1.00439 -0.000192208 0)
(1.00238 -0.00049126 0)
(1.00323 0.000764205 0)
(1.00448 -0.000725422 0)
(1.00452 0.000804565 0)
(1.00421 -0.00113373 0)
(1.00465 0.000241937 0)
(1.00485 -0.00104725 0)
(1.00484 6.90279e-05 0)
(1.0045 -0.000452288 0)
(1.00431 0.000349081 0)
(1.00365 0.000770413 0)
(1.00309 0.00182649 0)
(1.00228 0.00341924 0)
(1.00176 0.0054919 0)
(1.00115 0.00817782 0)
(0.999213 0.00466837 0)
(1.00461 -0.00184853 0)
(1.00256 -0.000461699 0)
(1.00126 0.000919045 0)
(1.0044 -0.000208998 0)
(1.00238 -0.000487007 0)
(1.00326 0.000720918 0)
(1.00447 -0.000702193 0)
(1.00453 0.000721035 0)
(1.00418 -0.00105218 0)
(1.00468 0.000124537 0)
(1.00484 -0.000923223 0)
(1.00488 -5.2498e-05 0)
(1.0045 -0.000315037 0)
(1.00439 0.000301031 0)
(1.00373 0.000905584 0)
(1.00325 0.00193662 0)
(1.0025 0.0035803 0)
(1.00208 0.00567812 0)
(1.00153 0.00824727 0)
(0.999284 0.00455947 0)
(1.00449 -0.00179007 0)
(1.00263 -0.000471282 0)
(1.00122 0.00090593 0)
(1.0044 -0.000237701 0)
(1.00237 -0.000471663 0)
(1.00328 0.00066324 0)
(1.00445 -0.000665848 0)
(1.00455 0.000621516 0)
(1.00415 -0.000958014 0)
(1.0047 -6.49566e-06 0)
(1.00482 -0.0008046 0)
(1.00492 -0.000169687 0)
(1.00451 -0.00020253 0)
(1.00447 0.000277807 0)
(1.00381 0.00101635 0)
(1.00342 0.00206962 0)
(1.00273 0.00373211 0)
(1.00241 0.00584654 0)
(1.0019 0.00832115 0)
(0.999347 0.00444391 0)
(1.00437 -0.001721 0)
(1.00269 -0.000493453 0)
(1.00119 0.000903534 0)
(1.00439 -0.000279847 0)
(1.00237 -0.000444582 0)
(1.00329 0.00059226 0)
(1.00443 -0.000618022 0)
(1.00456 0.000508316 0)
(1.00412 -0.000855697 0)
(1.00473 -0.000143817 0)
(1.00481 -0.000704899 0)
(1.00497 -0.000271668 0)
(1.00453 -0.000115977 0)
(1.00455 0.00027906 0)
(1.00391 0.00111305 0)
(1.0036 0.00221757 0)
(1.00297 0.00388837 0)
(1.00274 0.00599847 0)
(1.00227 0.00839794 0)
(0.999402 0.00432184 0)
(1.00425 -0.00164134 0)
(1.00275 -0.000528474 0)
(1.00116 0.000913238 0)
(1.00438 -0.000337323 0)
(1.00237 -0.000405322 0)
(1.0033 0.00051044 0)
(1.00442 -0.000560784 0)
(1.00457 0.000387864 0)
(1.0041 -0.0007562 0)
(1.00475 -0.000268335 0)
(1.00481 -0.00062751 0)
(1.00501 -0.000348232 0)
(1.00456 -5.40856e-05 0)
(1.00463 0.000298013 0)
(1.00403 0.00120223 0)
(1.00379 0.00237296 0)
(1.00322 0.00405863 0)
(1.00307 0.0061425 0)
(1.00263 0.00847815 0)
(0.999448 0.00419306 0)
(1.00413 -0.00154904 0)
(1.0028 -0.000579545 0)
(1.00114 0.00093783 0)
(1.00436 -0.000409441 0)
(1.00237 -0.000356817 0)
(1.00331 0.000416927 0)
(1.00441 -0.000496271 0)
(1.00458 0.000264807 0)
(1.00407 -0.000665221 0)
(1.00477 -0.000375102 0)
(1.00481 -0.000573908 0)
(1.00505 -0.000403356 0)
(1.0046 -2.1382e-05 0)
(1.00472 0.000314544 0)
(1.00416 0.00127526 0)
(1.00399 0.00251829 0)
(1.00349 0.00423591 0)
(1.00342 0.00628058 0)
(1.003 0.00856316 0)
(0.99948 0.00405584 0)
(1.00403 -0.00144088 0)
(1.00284 -0.000650866 0)
(1.00112 0.000978346 0)
(1.00433 -0.000498222 0)
(1.00239 -0.000295316 0)
(1.00331 0.000314159 0)
(1.00441 -0.000430081 0)
(1.00457 0.000144822 0)
(1.00405 -0.00059696 0)
(1.00478 -0.000459785 0)
(1.00481 -0.000545097 0)
(1.00509 -0.000441209 0)
(1.00465 -3.47927e-06 0)
(1.00481 0.000333083 0)
(1.00431 0.00132978 0)
(1.00421 0.00264302 0)
(1.00377 0.00440626 0)
(1.00376 0.00641517 0)
(1.00337 0.00866794 0)
(0.999498 0.00391307 0)
(1.00394 -0.00132118 0)
(1.00286 -0.000737442 0)
(1.00112 0.00102633 0)
(1.00429 -0.000596638 0)
(1.00242 -0.000230875 0)
(1.00329 0.000216485 0)
(1.00441 -0.000377395 0)
(1.00456 4.00375e-05 0)
(1.00405 -0.000566792 0)
(1.00478 -0.000509978 0)
(1.00483 -0.000552693 0)
(1.00512 -0.00046192 0)
(1.00471 -5.14255e-06 0)
(1.00489 0.000373287 0)
(1.00448 0.00134188 0)
(1.00443 0.00272432 0)
(1.00407 0.00448405 0)
(1.00412 0.00652388 0)
(1.00375 0.00878481 0)
(0.999501 0.00376258 0)
(1.00386 -0.00118445 0)
(1.00287 -0.000842068 0)
(1.00113 0.00108713 0)
(1.00423 -0.000709434 0)
(1.00246 -0.000166556 0)
(1.00326 0.000124103 0)
(1.00442 -0.000343957 0)
(1.00454 -4.11433e-05 0)
(1.00404 -0.000558161 0)
(1.00477 -0.000538971 0)
(1.00485 -0.000565324 0)
(1.00515 -0.000498783 0)
(1.00478 -1.03328e-05 0)
(1.00498 0.000408578 0)
(1.00466 0.00134611 0)
(1.00467 0.00273333 0)
(1.00439 0.00448537 0)
(1.00449 0.00648852 0)
(1.00416 0.0087182 0)
(0.99949 0.00360286 0)
(1.00378 -0.00102745 0)
(1.00287 -0.000970481 0)
(1.00115 0.0011643 0)
(1.00416 -0.000834914 0)
(1.0025 -9.95655e-05 0)
(1.00323 3.65156e-05 0)
(1.00444 -0.000340194 0)
(1.0045 -8.76627e-05 0)
(1.00405 -0.000572426 0)
(1.00475 -0.000555907 0)
(1.00488 -0.000579729 0)
(1.00517 -0.000514339 0)
(1.00486 -6.39364e-05 0)
(1.00506 0.000393195 0)
(1.00484 0.00134738 0)
(1.0049 0.00278436 0)
(1.00472 0.00455718 0)
(1.00487 0.00650103 0)
(1.00461 0.00869668 0)
(0.999471 0.00343946 0)
(1.00371 -0.000859374 0)
(1.00286 -0.00111143 0)
(1.00117 0.00124165 0)
(1.00407 -0.000949522 0)
(1.00256 -5.50706e-05 0)
(1.00318 -2.20602e-05 0)
(1.00446 -0.00037296 0)
(1.00446 -0.000107437 0)
(1.00406 -0.00060078 0)
(1.00473 -0.00058137 0)
(1.00491 -0.000583447 0)
(1.00518 -0.000525891 0)
(1.00494 -5.86401e-05 0)
(1.00515 0.00049733 0)
(1.00505 0.00143455 0)
(1.00516 0.00294341 0)
(1.00506 0.00470141 0)
(1.00525 0.00662952 0)
(1.00506 0.00871273 0)
(0.999448 0.00326628 0)
(1.00363 -0.000671371 0)
(1.00284 -0.00126588 0)
(1.0012 0.00132137 0)
(1.00398 -0.00106038 0)
(1.00261 -3.17029e-05 0)
(1.00312 -4.34686e-05 0)
(1.00449 -0.000429132 0)
(1.00442 -0.000113483 0)
(1.00406 -0.00062166 0)
(1.00471 -0.000610266 0)
(1.00494 -0.00054853 0)
(1.0052 -0.000517285 0)
(1.00504 7.39862e-05 0)
(1.00525 0.00073059 0)
(1.00526 0.00163553 0)
(1.00542 0.00309519 0)
(1.00542 0.00485973 0)
(1.00563 0.00675631 0)
(1.00551 0.00873858 0)
(0.999428 0.00308856 0)
(1.00355 -0.000470625 0)
(1.00283 -0.0014292 0)
(1.00122 0.00138997 0)
(1.00389 -0.00115019 0)
(1.00267 -4.3544e-05 0)
(1.00306 -3.18799e-05 0)
(1.00451 -0.00050714 0)
(1.00438 -0.000118511 0)
(1.00406 -0.000615453 0)
(1.00469 -0.000630124 0)
(1.00497 -0.000474855 0)
(1.00523 -0.000404507 0)
(1.00515 0.000205397 0)
(1.00536 0.000938764 0)
(1.00547 0.00183467 0)
(1.00569 0.00320478 0)
(1.00578 0.00497097 0)
(1.00602 0.00683317 0)
(1.00595 0.00872989 0)
(0.999413 0.00290634 0)
(1.00344 -0.000263358 0)
(1.00282 -0.00159085 0)
(1.00123 0.00143402 0)
(1.0038 -0.00120832 0)
(1.00273 -9.58739e-05 0)
(1.003 -3.04234e-07 0)
(1.00452 -0.000592774 0)
(1.00435 -0.000124671 0)
(1.00406 -0.00057024 0)
(1.00468 -0.000634189 0)
(1.00501 -0.000336971 0)
(1.00526 -0.000243327 0)
(1.00527 0.000317802 0)
(1.00548 0.00112904 0)
(1.00567 0.00202845 0)
(1.00597 0.00330456 0)
(1.00616 0.00502778 0)
(1.00641 0.00686012 0)
(1.00639 0.00867724 0)
(0.999408 0.0027181 0)
(1.00333 -5.00982e-05 0)
(1.00281 -0.00174561 0)
(1.00124 0.00144863 0)
(1.0037 -0.00124394 0)
(1.00278 -0.000179942 0)
(1.00295 4.43863e-05 0)
(1.00453 -0.000667903 0)
(1.00432 -0.000120766 0)
(1.00404 -0.00048287 0)
(1.00468 -0.000588836 0)
(1.00505 -0.000171547 0)
(1.00529 -7.88411e-05 0)
(1.00539 0.000407868 0)
(1.00561 0.00127946 0)
(1.00588 0.00222054 0)
(1.00624 0.00340891 0)
(1.00653 0.00504821 0)
(1.00682 0.00683213 0)
(1.00681 0.00857448 0)
(0.999413 0.00253051 0)
(1.00319 0.000152481 0)
(1.0028 -0.00187943 0)
(1.00125 0.00142234 0)
(1.00361 -0.00124705 0)
(1.00284 -0.000305811 0)
(1.0029 0.000112555 0)
(1.00453 -0.00072415 0)
(1.00431 -0.000102169 0)
(1.00403 -0.000317358 0)
(1.00469 -0.000513238 0)
(1.0051 -3.8976e-05 0)
(1.00533 8.64442e-05 0)
(1.0055 0.000499437 0)
(1.00576 0.00139079 0)
(1.00608 0.0024003 0)
(1.00652 0.00352277 0)
(1.00691 0.00504421 0)
(1.00722 0.00675256 0)
(1.00723 0.00842491 0)
(0.999428 0.00234103 0)
(1.00304 0.000348724 0)
(1.00279 -0.00198074 0)
(1.00124 0.00135672 0)
(1.00351 -0.00121708 0)
(1.00289 -0.000452202 0)
(1.00285 0.000182215 0)
(1.00453 -0.00075296 0)
(1.00432 -4.11957e-05 0)
(1.00401 -9.7741e-05 0)
(1.00469 -0.000426079 0)
(1.00515 5.8436e-05 0)
(1.00536 0.000269605 0)
(1.00562 0.000612061 0)
(1.00593 0.00146791 0)
(1.0063 0.00254442 0)
(1.00678 0.00363865 0)
(1.00727 0.00503031 0)
(1.00763 0.00663794 0)
(1.00765 0.00824235 0)
(0.999449 0.0021514 0)
(1.00288 0.000541107 0)
(1.00279 -0.00204231 0)
(1.00124 0.00125564 0)
(1.00341 -0.0011748 0)
(1.00294 -0.000604323 0)
(1.00282 0.000260161 0)
(1.00452 -0.000719341 0)
(1.00435 1.46201e-05 0)
(1.00398 0.000115438 0)
(1.00469 -0.000327523 0)
(1.0052 0.000134512 0)
(1.0054 0.000461814 0)
(1.00572 0.000747302 0)
(1.00611 0.00152444 0)
(1.00652 0.00264006 0)
(1.00705 0.00374456 0)
(1.00762 0.00502147 0)
(1.00803 0.00650828 0)
(1.00806 0.00803613 0)
(0.999477 0.00196679 0)
(1.00271 0.000711277 0)
(1.00277 -0.00205933 0)
(1.00124 0.00112731 0)
(1.00331 -0.00112371 0)
(1.00299 -0.00075021 0)
(1.00279 0.000366233 0)
(1.0045 -0.000626037 0)
(1.0044 4.30613e-05 0)
(1.00396 0.00031255 0)
(1.00469 -0.000212246 0)
(1.00526 0.000180488 0)
(1.00545 0.000635983 0)
(1.00581 0.000900236 0)
(1.00629 0.00158077 0)
(1.00676 0.0026944 0)
(1.00731 0.00383001 0)
(1.00795 0.00502422 0)
(1.00843 0.00638094 0)
(1.00847 0.00781519 0)
(0.999508 0.00178361 0)
(1.00254 0.000858668 0)
(1.00274 -0.00204135 0)
(1.00123 0.000994593 0)
(1.00321 -0.00105453 0)
(1.00304 -0.000863551 0)
(1.00278 0.00047511 0)
(1.00447 -0.000510673 0)
(1.00445 4.91042e-05 0)
(1.00394 0.000496343 0)
(1.00467 -7.18779e-05 0)
(1.00533 0.000209187 0)
(1.00551 0.000781954 0)
(1.00589 0.00107105 0)
(1.00646 0.00164943 0)
(1.00701 0.00271941 0)
(1.00759 0.00388369 0)
(1.00827 0.00502931 0)
(1.0088 0.00625989 0)
(1.00887 0.0075827 0)
(0.999541 0.00160618 0)
(1.00236 0.00097712 0)
(1.00271 -0.00199305 0)
(1.00123 0.000872913 0)
(1.0031 -0.000955654 0)
(1.0031 -0.000953139 0)
(1.00279 0.000566704 0)
(1.00444 -0.000369404 0)
(1.0045 2.56039e-05 0)
(1.00393 0.000652022 0)
(1.00464 0.000100063 0)
(1.0054 0.000239167 0)
(1.00559 0.000894148 0)
(1.00597 0.00125268 0)
(1.00663 0.00173743 0)
(1.00726 0.00272653 0)
(1.00787 0.00390099 0)
(1.00858 0.00502337 0)
(1.00916 0.00614359 0)
(1.00925 0.00734344 0)
(0.999575 0.00143608 0)
(1.00218 0.0010644 0)
(1.00266 -0.00191703 0)
(1.00124 0.0007681 0)
(1.003 -0.000823735 0)
(1.00316 -0.00102474 0)
(1.0028 0.00063589 0)
(1.0044 -0.000198573 0)
(1.00457 6.8009e-06 0)
(1.00393 0.000779933 0)
(1.0046 0.000298548 0)
(1.00546 0.000281701 0)
(1.00569 0.000969189 0)
(1.00606 0.00143154 0)
(1.00678 0.00184944 0)
(1.00751 0.00272864 0)
(1.00817 0.0038823 0)
(1.00889 0.00499282 0)
(1.0095 0.0060259 0)
(1.00962 0.00710244 0)
(0.99961 0.00127217 0)
(1.002 0.00112853 0)
(1.00261 -0.00182401 0)
(1.00124 0.000677763 0)
(1.00288 -0.00066452 0)
(1.00322 -0.00106997 0)
(1.00284 0.000678358 0)
(1.00435 -6.45944e-06 0)
(1.00463 -2.14641e-06 0)
(1.00395 0.000873827 0)
(1.00456 0.000515304 0)
(1.00552 0.00035056 0)
(1.00581 0.00101308 0)
(1.00615 0.00159493 0)
(1.00692 0.0019848 0)
(1.00776 0.00274078 0)
(1.00848 0.00383374 0)
(1.0092 0.00492816 0)
(1.00983 0.00589615 0)
(1.00997 0.00685878 0)
(0.999645 0.00111344 0)
(1.00182 0.00116974 0)
(1.00255 -0.00171827 0)
(1.00126 0.000598099 0)
(1.00277 -0.000478009 0)
(1.00328 -0.00108222 0)
(1.00289 0.000699708 0)
(1.0043 0.000205436 0)
(1.00469 7.81959e-06 0)
(1.004 0.000928555 0)
(1.00451 0.000733 0)
(1.00556 0.000453151 0)
(1.00594 0.00103618 0)
(1.00627 0.00172514 0)
(1.00706 0.00212992 0)
(1.00799 0.00277237 0)
(1.00879 0.00376978 0)
(1.00951 0.00483358 0)
(1.01014 0.00575303 0)
(1.01029 0.00661744 0)
(0.99968 0.000966394 0)
(1.00165 0.00118459 0)
(1.00249 -0.00160647 0)
(1.00128 0.000531035 0)
(1.00266 -0.000279044 0)
(1.00334 -0.00104863 0)
(1.00297 0.000707546 0)
(1.00425 0.000423793 0)
(1.00474 4.22827e-05 0)
(1.00406 0.000942088 0)
(1.00448 0.000931732 0)
(1.00559 0.000587638 0)
(1.00608 0.00105241 0)
(1.00641 0.00180549 0)
(1.00719 0.00225922 0)
(1.00821 0.00281288 0)
(1.00909 0.00369576 0)
(1.00983 0.00471074 0)
(1.01044 0.00559293 0)
(1.0106 0.00637869 0)
(0.999714 0.000817116 0)
(1.00149 0.00119111 0)
(1.00243 -0.00150486 0)
(1.00132 0.000460086 0)
(1.00255 -7.72822e-05 0)
(1.00339 -0.000952232 0)
(1.00306 0.000708245 0)
(1.0042 0.000639796 0)
(1.00478 0.000114491 0)
(1.00415 0.000937761 0)
(1.00446 0.00111568 0)
(1.0056 0.000756004 0)
(1.00623 0.00108289 0)
(1.00657 0.00184267 0)
(1.00733 0.00235791 0)
(1.00841 0.00285174 0)
(1.00938 0.00361552 0)
(1.01015 0.00456099 0)
(1.01075 0.00540785 0)
(1.01089 0.00613186 0)
(0.999748 0.000684694 0)
(1.00134 0.00116657 0)
(1.00236 -0.00141818 0)
(1.00137 0.000364341 0)
(1.00245 0.000204658 0)
(1.00343 -0.000771758 0)
(1.00317 0.000702835 0)
(1.00415 0.000826735 0)
(1.00481 0.000212251 0)
(1.00425 0.000910927 0)
(1.00446 0.00125981 0)
(1.00561 0.000934765 0)
(1.00636 0.00112677 0)
(1.00674 0.00184726 0)
(1.00748 0.00241853 0)
(1.0086 0.00288222 0)
(1.00965 0.00353463 0)
(1.01047 0.0043921 0)
(1.01105 0.00519658 0)
(1.01117 0.00586949 0)
(0.999781 0.000549569 0)
(1.00119 0.00109382 0)
(1.00229 -0.00138506 0)
(1.00144 0.000257389 0)
(1.00237 0.000568281 0)
(1.00345 -0.000498432 0)
(1.00329 0.000731207 0)
(1.00412 0.00101509 0)
(1.00483 0.000361073 0)
(1.00437 0.00089715 0)
(1.00448 0.00137528 0)
(1.00561 0.00113344 0)
(1.00648 0.00120935 0)
(1.00693 0.00185626 0)
(1.00765 0.0024644 0)
(1.00878 0.00291857 0)
(1.00991 0.00347443 0)
(1.01078 0.00423111 0)
(1.01135 0.00498094 0)
(1.01144 0.00560653 0)
(0.999813 0.000459794 0)
(1.00104 0.00096654 0)
(1.00222 -0.00135829 0)
(1.00155 0.000219782 0)
(1.00232 0.000908526 0)
(1.00346 -0.00019386 0)
(1.00341 0.00077348 0)
(1.00411 0.00119488 0)
(1.00483 0.000557795 0)
(1.00449 0.000914595 0)
(1.00454 0.00145824 0)
(1.00561 0.00132515 0)
(1.00659 0.00131652 0)
(1.00713 0.00186857 0)
(1.00784 0.00248567 0)
(1.00897 0.00294174 0)
(1.01016 0.00342135 0)
(1.01108 0.00407557 0)
(1.01165 0.00476094 0)
(1.01171 0.00534162 0)
(0.999844 0.000408893 0)
(1.00091 0.000965549 0)
(1.00216 -0.00117947 0)
(1.00168 0.000111116 0)
(1.0023 0.00100114 0)
(1.00345 1.5693e-05 0)
(1.00353 0.000735592 0)
(1.00412 0.00130398 0)
(1.00483 0.000758285 0)
(1.00461 0.00095561 0)
(1.00462 0.00150544 0)
(1.00563 0.0014801 0)
(1.00669 0.00142062 0)
(1.00732 0.00186809 0)
(1.00804 0.00245889 0)
(1.00915 0.00291522 0)
(1.01039 0.00333675 0)
(1.01137 0.0038941 0)
(1.01195 0.00450794 0)
(1.01197 0.00504446 0)
(0.999875 0.000199452 0)
(1.00078 0.00113492 0)
(1.00207 -0.000822918 0)
(1.00179 -2.89388e-05 0)
(1.00229 0.0010447 0)
(1.00344 0.000243112 0)
(1.00365 0.00071431 0)
(1.00415 0.00137141 0)
(1.00481 0.000940571 0)
(1.0047 0.0009922 0)
(1.00471 0.00149583 0)
(1.00564 0.00157071 0)
(1.00676 0.00149885 0)
(1.0075 0.00184743 0)
(1.00823 0.00238832 0)
(1.00933 0.00283763 0)
(1.01059 0.00321695 0)
(1.01162 0.00368829 0)
(1.01223 0.0042273 0)
(1.01222 0.00471654 0)
(0.999894 0.000197488 0)
(1.00069 0.00100677 0)
(1.00194 -0.000660001 0)
(1.00188 1.45191e-05 0)
(1.00229 0.00120183 0)
(1.0034 0.000516429 0)
(1.00374 0.000775388 0)
(1.00417 0.00146325 0)
(1.00478 0.00118322 0)
(1.00477 0.00113236 0)
(1.0048 0.00155306 0)
(1.00567 0.00170382 0)
(1.00682 0.00164644 0)
(1.00765 0.00189667 0)
(1.00843 0.00236427 0)
(1.00951 0.00278503 0)
(1.01077 0.00312354 0)
(1.01185 0.00351588 0)
(1.01248 0.00397772 0)
(1.01245 0.0044147 0)
(0.999926 0.000208222 0)
(1.00058 0.000817013 0)
(1.00188 -0.000510598 0)
(1.00201 0.000144155 0)
(1.00232 0.00136888 0)
(1.00337 0.000828117 0)
(1.00384 0.000896398 0)
(1.00424 0.00154533 0)
(1.00478 0.00141332 0)
(1.00484 0.00130927 0)
(1.00491 0.00162525 0)
(1.00572 0.00181093 0)
(1.00687 0.00178138 0)
(1.00779 0.00195437 0)
(1.00861 0.00234195 0)
(1.00967 0.00272052 0)
(1.01095 0.00301968 0)
(1.01206 0.00334393 0)
(1.01272 0.00373246 0)
(1.01268 0.00411709 0)
(0.999941 8.14592e-05 0)
(1.00051 0.000933577 0)
(1.0018 -0.000180769 0)
(1.00212 0.00015386 0)
(1.00237 0.00140672 0)
(1.00332 0.00108463 0)
(1.0039 0.000990844 0)
(1.00431 0.0015536 0)
(1.00478 0.00155007 0)
(1.00488 0.00143845 0)
(1.005 0.00165178 0)
(1.00577 0.00183369 0)
(1.00693 0.00182282 0)
(1.00791 0.00194483 0)
(1.00877 0.00225409 0)
(1.00984 0.00258132 0)
(1.01111 0.00283813 0)
(1.01225 0.00310133 0)
(1.01294 0.00342051 0)
(1.01289 0.00375429 0)
(0.99996 7.93247e-05 0)
(1.00044 0.00102835 0)
(1.00168 3.27122e-05 0)
(1.00219 0.000105857 0)
(1.00243 0.00132944 0)
(1.00327 0.00127358 0)
(1.00394 0.0011064 0)
(1.00438 0.00157931 0)
(1.00478 0.00169343 0)
(1.0049 0.00161012 0)
(1.00506 0.00173721 0)
(1.00581 0.00188008 0)
(1.00696 0.00186695 0)
(1.00799 0.00194417 0)
(1.0089 0.00218083 0)
(1.00997 0.00244984 0)
(1.01123 0.00265658 0)
(1.0124 0.00285729 0)
(1.01312 0.00310577 0)
(1.01308 0.0033858 0)
(0.999973 6.75124e-05 0)
(1.00038 0.000961353 0)
(1.00156 0.000263038 0)
(1.00225 0.000214039 0)
(1.0025 0.00137193 0)
(1.00323 0.00154294 0)
(1.00394 0.00133037 0)
(1.00443 0.00165444 0)
(1.00478 0.0018207 0)
(1.0049 0.00177885 0)
(1.00509 0.0018389 0)
(1.00583 0.001925 0)
(1.00698 0.00189688 0)
(1.00806 0.0019371 0)
(1.00901 0.00211871 0)
(1.01008 0.00233855 0)
(1.01133 0.0024973 0)
(1.01251 0.0026362 0)
(1.01326 0.00281148 0)
(1.01323 0.00303047 0)
(0.999983 0.000101393 0)
(1.00033 0.000862122 0)
(1.00145 0.0005156 0)
(1.00229 0.000394002 0)
(1.00259 0.0014238 0)
(1.0032 0.00178308 0)
(1.00392 0.00157999 0)
(1.00446 0.0017579 0)
(1.0048 0.00193807 0)
(1.0049 0.00196201 0)
(1.00511 0.00198624 0)
(1.00584 0.00200548 0)
(1.00698 0.00193827 0)
(1.0081 0.00192889 0)
(1.00909 0.00205061 0)
(1.01016 0.00221722 0)
(1.01139 0.00232455 0)
(1.01258 0.00239942 0)
(1.01336 0.0024981 0)
(1.01336 0.0026486 0)
(0.999992 0.000108062 0)
(1.0003 0.00084527 0)
(1.00136 0.000743088 0)
(1.00231 0.000576405 0)
(1.00268 0.00147852 0)
(1.00319 0.00199217 0)
(1.00389 0.00185158 0)
(1.00448 0.00190048 0)
(1.00482 0.00205508 0)
(1.0049 0.00212506 0)
(1.0051 0.00213994 0)
(1.00581 0.00209079 0)
(1.00695 0.00197083 0)
(1.00811 0.00189847 0)
(1.00915 0.00195388 0)
(1.01021 0.00206058 0)
(1.01143 0.00211951 0)
(1.01261 0.00213426 0)
(1.01342 0.00216118 0)
(1.01344 0.00224191 0)
(0.999996 0.000119118 0)
(1.00028 0.00087128 0)
(1.00126 0.000953742 0)
(1.00231 0.00077039 0)
(1.00277 0.00152275 0)
(1.00318 0.00214669 0)
(1.00383 0.00210351 0)
(1.00446 0.00206871 0)
(1.00482 0.00216656 0)
(1.00489 0.00226547 0)
(1.00507 0.00228864 0)
(1.00575 0.00219939 0)
(1.00688 0.00201984 0)
(1.00808 0.00188152 0)
(1.00916 0.00185692 0)
(1.01023 0.00189713 0)
(1.01142 0.00190319 0)
(1.01259 0.00186337 0)
(1.01342 0.001822 0)
(1.01347 0.00183251 0)
(0.999999 0.000187374 0)
(1.00027 0.000885851 0)
(1.00117 0.00112618 0)
(1.00228 0.000977283 0)
(1.00284 0.0015735 0)
(1.0032 0.00227515 0)
(1.00376 0.00235046 0)
(1.00441 0.00227062 0)
(1.0048 0.00227495 0)
(1.00487 0.00236248 0)
(1.00502 0.00238354 0)
(1.00565 0.00227046 0)
(1.00677 0.00202646 0)
(1.00799 0.00181124 0)
(1.00912 0.00169437 0)
(1.0102 0.00166098 0)
(1.01137 0.00160998 0)
(1.01252 0.00152257 0)
(1.01336 0.00142363 0)
(1.01345 0.00136909 0)
(1 0.00017627 0)
(1.00025 0.00098738 0)
(1.00109 0.00133103 0)
(1.00223 0.00124529 0)
(1.0029 0.00171567 0)
(1.00322 0.00242814 0)
(1.00369 0.00261384 0)
(1.00432 0.00251458 0)
(1.00474 0.00244141 0)
(1.00483 0.00249193 0)
(1.00494 0.00252214 0)
(1.00552 0.00240294 0)
(1.0066 0.00211425 0)
(1.00784 0.00181272 0)
(1.00901 0.00159938 0)
(1.01011 0.00147935 0)
(1.01127 0.0013659 0)
(1.0124 0.0012252 0)
(1.01324 0.00107335 0)
(1.01335 0.000953763 0)
(0.999999 0.000256585 0)
(1.00026 0.00092301 0)
(1.001 0.00147413 0)
(1.00215 0.00153364 0)
(1.00292 0.00190377 0)
(1.00323 0.00258563 0)
(1.00361 0.00287342 0)
(1.00419 0.00279407 0)
(1.00464 0.0026686 0)
(1.00476 0.00266307 0)
(1.00485 0.00267721 0)
(1.00535 0.00254542 0)
(1.00638 0.00220902 0)
(1.00762 0.00181399 0)
(1.00882 0.0014895 0)
(1.00995 0.0012672 0)
(1.0111 0.0010764 0)
(1.01221 0.000872306 0)
(1.01304 0.000660124 0)
(1.01318 0.000477875 0)
(0.999997 0.000337474 0)
(1.00025 0.000886555 0)
(1.00097 0.00160677 0)
(1.0021 0.00184064 0)
(1.00294 0.00213976 0)
(1.00326 0.00276688 0)
(1.00355 0.0031356 0)
(1.00406 0.00309812 0)
(1.00452 0.00292582 0)
(1.00467 0.00284476 0)
(1.00473 0.00280858 0)
(1.00515 0.00264934 0)
(1.0061 0.00227335 0)
(1.00732 0.00179572 0)
(1.00856 0.00136246 0)
(1.00972 0.00102817 0)
(1.01086 0.000747868 0)
(1.01195 0.000472376 0)
(1.01279 0.000196297 0)
(1.01295 -5.17815e-05 0)
(0.999995 0.000354201 0)
(1.00027 0.00104426 0)
(1.00095 0.00179882 0)
(1.00203 0.002136 0)
(1.00292 0.00238979 0)
(1.00327 0.00294403 0)
(1.00348 0.00336687 0)
(1.00391 0.00340508 0)
(1.00435 0.00321343 0)
(1.00452 0.00307368 0)
(1.00458 0.00297687 0)
(1.00492 0.00279128 0)
(1.00577 0.0023833 0)
(1.00694 0.00183509 0)
(1.0082 0.00129149 0)
(1.00938 0.000826907 0)
(1.01054 0.00043353 0)
(1.01161 6.55277e-05 0)
(1.01244 -0.000290452 0)
(1.01262 -0.000615778 0)
(0.999992 0.00040053 0)
(1.00026 0.00120266 0)
(1.00092 0.00197668 0)
(1.00194 0.00241089 0)
(1.00286 0.0026533 0)
(1.00326 0.00314215 0)
(1.00342 0.00360223 0)
(1.00374 0.00372663 0)
(1.00413 0.00355217 0)
(1.00432 0.00334748 0)