/*--------------------------------*- C++ -*----------------------------------*\
| =========                 |                                                 |
| \\      /  F ield         | OpenFOAM: The Open Source CFD Toolbox           |
|  \\    /   O peration     | Version:  v2012                                 |
|   \\  /    A nd           | Website:  www.openfoam.com                      |
|    \\/     M anipulation  |                                                 |
\*---------------------------------------------------------------------------*/
FoamFile
{
    version     2.0;
    format      ascii;
    class       volScalarField;
    location    "1";
    object      p;
}
// * * * * * * * * * * * * * * * * * * * * * * * * * * * * * * * * * * * * * //

dimensions      [0 2 -2 0 0 0 0];


internalField   nonuniform List<scalar> 
17600
(
1.01342e-10
-0.000639663
-0.00067755
-0.00169306
-0.00243527
-0.00262245
-0.00297518
-0.00307449
-0.00384068
-0.00396996
-0.00428385
-0.00472805
-0.0051882
-0.00505034
-0.00502411
-0.0044454
-0.00380454
-0.002088
-0.000153922
0.00368073
4.01035e-07
-0.000641144
-0.000676469
-0.00169539
-0.00243331
-0.00262436
-0.00297377
-0.00307521
-0.00383997
-0.00397441
-0.00428275
-0.00473408
-0.0051857
-0.00506091
-0.00501869
-0.00446266
-0.00379432
-0.0021524
-0.000140491
0.00336452
3.76169e-07
-0.000643425
-0.000675133
-0.00169892
-0.00242961
-0.00262664
-0.00297075
-0.00307657
-0.00383969
-0.00398011
-0.00428083
-0.00474139
-0.00518237
-0.00507284
-0.00501264
-0.00448426
-0.00378381
-0.00221672
-0.000144096
0.00293824
-5.55568e-07
-0.000646194
-0.000674347
-0.00170327
-0.0024252
-0.00262812
-0.00296686
-0.00307782
-0.00384027
-0.0039856
-0.00427872
-0.00474878
-0.00517974
-0.00508535
-0.00500728
-0.00450773
-0.00377458
-0.00228247
-0.000177854
0.00252377
-2.43325e-06
-0.000649571
-0.000674056
-0.00170861
-0.00241991
-0.00262868
-0.00296226
-0.00307912
-0.00384141
-0.00399118
-0.00427644
-0.00475688
-0.00517733
-0.005099
-0.00500163
-0.0045336
-0.00376703
-0.00235264
-0.000242432
0.0021307
-5.19372e-06
-0.00065355
-0.000674019
-0.00171484
-0.00241348
-0.00262844
-0.00295702
-0.00308069
-0.00384278
-0.00399712
-0.0042738
-0.0047658
-0.00517465
-0.00511385
-0.00499568
-0.00456196
-0.0037627
-0.00242762
-0.000336801
0.00176079
-8.69987e-06
-0.000657993
-0.000674031
-0.00172165
-0.00240597
-0.0026275
-0.00295127
-0.00308253
-0.00384409
-0.00400343
-0.00427068
-0.00477545
-0.00517172
-0.00512986
-0.00499002
-0.00459226
-0.00376367
-0.00250674
-0.000459944
0.00140981
-1.27512e-05
-0.000662753
-0.000673947
-0.00172877
-0.00239763
-0.00262599
-0.00294509
-0.00308457
-0.00384516
-0.00401013
-0.0042671
-0.00478582
-0.00516874
-0.00514691
-0.00498536
-0.00462375
-0.00377213
-0.0025886
-0.000611192
0.00107154
-1.7152e-05
-0.00066775
-0.000673693
-0.00173608
-0.00238873
-0.00262403
-0.00293855
-0.00308678
-0.00384597
-0.00401727
-0.00426314
-0.00479692
-0.00516595
-0.00516476
-0.00498256
-0.00465556
-0.00379022
-0.00267264
-0.000789157
0.00073986
-2.17675e-05
-0.000672964
-0.000673262
-0.00174358
-0.00237948
-0.00262169
-0.0029317
-0.00308911
-0.00384651
-0.00402485
-0.00425889
-0.00480865
-0.00516367
-0.00518304
-0.00498254
-0.0046869
-0.00381982
-0.00275917
-0.00099108
0.000409414
-2.65293e-05
-0.000678409
-0.000672679
-0.00175131
-0.00236997
-0.00261898
-0.0029246
-0.00309153
-0.0038468
-0.00403282
-0.00425449
-0.00482083
-0.00516233
-0.00520125
-0.00498617
-0.00471727
-0.0038623
-0.00284946
-0.00121309
7.60025e-05
-3.14086e-05
-0.000684108
-0.000671977
-0.00175927
-0.00236025
-0.00261589
-0.00291729
-0.003094
-0.00384689
-0.00404109
-0.00425012
-0.00483315
-0.00516244
-0.0052188
-0.00499437
-0.00474646
-0.00391815
-0.00294588
-0.00145073
-0.000262954
-3.63874e-05
-0.000690073
-0.000671185
-0.00176745
-0.00235037
-0.00261236
-0.0029098
-0.00309641
-0.00384682
-0.0040495
-0.00424605
-0.00484523
-0.00516462
-0.00523514
-0.00500807
-0.00477507
-0.00398678
-0.00305144
-0.00169972
-0.000608396
-4.14453e-05
-0.00069631
-0.000670324
-0.00177577
-0.00234037
-0.00260837
-0.0029022
-0.00309868
-0.0038467
-0.00405784
-0.00424257
-0.00485666
-0.00516937
-0.00524996
-0.00502794
-0.00480453
-0.00406672
-0.00316914
-0.001957
-0.000960097
-4.65589e-05
-0.000702821
-0.000669415
-0.00178415
-0.00233032
-0.00260385
-0.00289459
-0.00310065
-0.00384666
-0.00406585
-0.00424004
-0.00486709
-0.00517708
-0.00526317
-0.00505408
-0.00483681
-0.00415633
-0.0033012
-0.00222096
-0.00131704
-5.17066e-05
-0.000709604
-0.000668474
-0.00179247
-0.00232035
-0.0025987
-0.00288707
-0.00310213
-0.00384691
-0.00407326
-0.00423877
-0.00487623
-0.00518806
-0.00527538
-0.00508596
-0.00487424
-0.00425444
-0.00344901
-0.002491
-0.00167782
-5.68713e-05
-0.00071665
-0.000667524
-0.00180061
-0.00231056
-0.00259283
-0.00287979
-0.0031029
-0.00384767
-0.00407978
-0.00423904
-0.00488388
-0.00520248
-0.00528746
-0.00512248
-0.00491888
-0.00436079
-0.00361295
-0.00276704
-0.00204125
-6.20432e-05
-0.000723937
-0.000666595
-0.00180845
-0.00230114
-0.00258609
-0.00287294
-0.0031027
-0.00384915
-0.00408523
-0.00424102
-0.00489004
-0.00522018
-0.0053008
-0.00516246
-0.00497215
-0.00447589
-0.00379239
-0.00304937
-0.00240631
-6.72244e-05
-0.000731426
-0.000665726
-0.00181583
-0.00229227
-0.00257891
-0.00286673
-0.00310124
-0.00385148
-0.00408951
-0.00424472
-0.00489509
-0.00524044
-0.00531687
-0.00520533
-0.00503516
-0.00460076
-0.00398631
-0.00333814
-0.00277203
-7.24315e-05
-0.000739049
-0.000664968
-0.00182256
-0.00228413
-0.00256973
-0.00286145
-0.0030983
-0.00385474
-0.00409263
-0.00424994
-0.00489984
-0.00526208
-0.00533679
-0.00525138
-0.00510855
-0.00473686
-0.00419404
-0.00363331
-0.00313763
-7.76965e-05
-0.000746711
-0.000664396
-0.00182842
-0.00227699
-0.00255894
-0.0028573
-0.00309374
-0.00385895
-0.00409466
-0.0042561
-0.00490543
-0.00528403
-0.00536109
-0.00530135
-0.00519218
-0.00488552
-0.00441583
-0.00393499
-0.00350268
-8.3073e-05
-0.000754267
-0.000664114
-0.00183315
-0.00227113
-0.00254638
-0.0028544
-0.00308757
-0.00386401
-0.00409595
-0.00426228
-0.00491295
-0.0053059
-0.00539001
-0.00535654
-0.00528542
-0.00504723
-0.00465264
-0.00424399
-0.0038672
-8.86477e-05
-0.000761514
-0.000664239
-0.00183651
-0.00226681
-0.00253186
-0.00285283
-0.00307987
-0.00386938
-0.00409738
-0.00426744
-0.0049229
-0.00532776
-0.00542348
-0.00541858
-0.00538804
-0.0052217
-0.0049053
-0.00456192
-0.00423175
-9.45442e-05
-0.000768199
-0.000664897
-0.00183824
-0.00226431
-0.00251524
-0.00285264
-0.00307095
-0.00387406
-0.00410014
-0.00427082
-0.00493536
-0.00535025
-0.00546114
-0.00548911
-0.00550081
-0.00540811
-0.00517381
-0.00489098
-0.00459761
-0.000100918
-0.000774005
-0.000666228
-0.00183811
-0.00226377
-0.00249656
-0.00285366
-0.00306125
-0.00387695
-0.00410507
-0.00427212
-0.0049503
-0.00537463
-0.00550236
-0.00556928
-0.00562546
-0.00560546
-0.00545694
-0.00523317
-0.00496704
-0.000107961
-0.000778547
-0.000668343
-0.00183596
-0.0022653
-0.00247611
-0.00285532
-0.00305147
-0.00387705
-0.00411267
-0.00427142
-0.00496708
-0.00540264
-0.00554699
-0.00565965
-0.00576424
-0.0058132
-0.00575221
-0.00558952
-0.00534326
-0.000115917
-0.000781411
-0.000671318
-0.00183168
-0.002269
-0.00245439
-0.0028569
-0.00304241
-0.00387344
-0.00412328
-0.00426927
-0.00498444
-0.00543626
-0.00559581
-0.00576027
-0.00591906
-0.00603138
-0.0060561
-0.00595918
-0.00572965
-0.000125076
-0.000782162
-0.000675157
-0.00182527
-0.00227468
-0.00243207
-0.00285967
-0.00303484
-0.00386567
-0.00413664
-0.00426676
-0.0050016
-0.00547742
-0.00565095
-0.00587086
-0.0060906
-0.00626008
-0.00636467
-0.00633881
-0.00612835
-0.000135736
-0.000780367
-0.000679754
-0.00181698
-0.00228183
-0.00240994
-0.00285717
-0.00302932
-0.00385395
-0.00415187
-0.00426512
-0.00501876
-0.00552817
-0.00571533
-0.00599113
-0.00627782
-0.00649917
-0.00667439
-0.00672302
-0.00653874
-0.000148207
-0.00077565
-0.000684804
-0.00180728
-0.0022897
-0.00238878
-0.00285183
-0.00302594
-0.00383899
-0.00416851
-0.00426595
-0.00503706
-0.00559056
-0.00579164
-0.00611933
-0.00647811
-0.0067489
-0.00698339
-0.00710595
-0.006957
-0.000162815
-0.000767752
-0.000689748
-0.0017969
-0.0022975
-0.00236912
-0.00284349
-0.00302441
-0.00382164
-0.00418635
-0.00427183
-0.00505781
-0.00566498
-0.00588141
-0.00625224
-0.0066877
-0.00701021
-0.0072925
-0.00748336
-0.00737685
-0.000179817
-0.000756706
-0.000693679
-0.00178649
-0.00230473
-0.00235117
-0.00283257
-0.00302434
-0.00380261
-0.00420575
-0.00428573
-0.00508222
-0.0057508
-0.00598472
-0.0063869
-0.00690208
-0.00728354
-0.00760503
-0.00785342
-0.00779126
-0.000199363
-0.00074284
-0.000695387
-0.00177641
-0.00231119
-0.00233485
-0.00282023
-0.00302541
-0.00378272
-0.00422889
-0.00430998
-0.0051106
-0.00584605
-0.0061015
-0.00652205
-0.00711638
-0.0075675
-0.00792467
-0.00821598
-0.0081943
-0.000221488
-0.000726711
-0.000693624
-0.00176683
-0.00231692
-0.00231967
-0.00280778
-0.00302788
-0.00376288
-0.00425656
-0.0043461
-0.00514237
-0.00594743
-0.00623221
-0.00665884
-0.00732631
-0.00785866
-0.00825313
-0.0085728
-0.00858258
-0.000246099
-0.000709251
-0.000687148
-0.00175741
-0.00232244
-0.00230501
-0.00279602
-0.00303317
-0.00374401
-0.00428904
-0.0043951
-0.00517687
-0.00605066
-0.0063768
-0.00680062
-0.00752926
-0.00815223
-0.00859035
-0.00892686
-0.00895562
-0.0002729
-0.000691786
-0.000675029
-0.00174683
-0.00232901
-0.00229073
-0.00278519
-0.00304355
-0.00372746
-0.00432568
-0.00445736
-0.00521416
-0.0061512
-0.00653357
-0.00695164
-0.00772504
-0.00844305
-0.00893446
-0.00928103
-0.0093152
-0.000301464
-0.00067568
-0.000656783
-0.00173305
-0.00233798
-0.00227743
-0.00277518
-0.0030612
-0.00371516
-0.00436435
-0.00453199
-0.0052558
-0.00624562
-0.00669912
-0.00711534
-0.00791594
-0.00872647
-0.00928155
-0.00963685
-0.00966435
-0.000331269
-0.000662127
-0.000632649
-0.00171391
-0.00234972
-0.00226618
-0.00276601
-0.00308809
-0.003709
-0.00440446
-0.00461747
-0.00530484
-0.00633223
-0.00686851
-0.00729334
-0.00810616
-0.00899929
-0.00962632
-0.00999393
-0.0100062
-0.000361567
-0.000652131
-0.000604327
-0.00168749
-0.00236369
-0.00225824
-0.00275758
-0.00312555
-0.00371073
-0.00443794
-0.00471199
-0.00536471
-0.00641131
-0.00703629
-0.00748484
-0.00830039
-0.00926056
-0.00996323
-0.0103498
-0.0103427
-0.000391434
-0.000646444
-0.000574414
-0.00165239
-0.0023786
-0.00225527
-0.00274937
-0.0031736
-0.00372296
-0.00446592
-0.00481211
-0.00543789
-0.00648541
-0.00719789
-0.00768711
-0.00850189
-0.00951131
-0.0102877
-0.0107008
-0.0106742
-0.000419984
-0.000645592
-0.000545297
-0.00160797
-0.00239317
-0.00225886
-0.00274093
-0.00323126
-0.00374918
-0.00448883
-0.00491243
-0.00552512
-0.00655882
-0.00735047
-0.00789576
-0.00871188
-0.00975385
-0.0105971
-0.0110427
-0.0109995
-0.000446575
-0.000649796
-0.000519212
-0.00155433
-0.00240588
-0.00227029
-0.0027323
-0.00329648
-0.00379218
-0.00450938
-0.00500762
-0.00562504
-0.00663612
-0.00749338
-0.00810563
-0.00892961
-0.00999086
-0.0108905
-0.0113719
-0.0113161
-0.00047073
-0.000658769
-0.000498407
-0.00149245
-0.00241531
-0.00229094
-0.00272364
-0.00336476
-0.0038526
-0.00453174
-0.00509424
-0.0057344
-0.00672142
-0.00762807
-0.0083117
-0.00915269
-0.0102248
-0.0111691
-0.0116859
-0.0116214
-0.000492089
-0.000671919
-0.000484863
-0.00142428
-0.00242022
-0.00232203
-0.00271564
-0.00343021
-0.00392931
-0.00456093
-0.00517111
-0.00584877
-0.00681734
-0.00775727
-0.00850962
-0.00937723
-0.0104574
-0.0114351
-0.011984
-0.0119132
-0.000510431
-0.000688393
-0.000480076
-0.00135252
-0.00241965
-0.00236444
-0.00270992
-0.00348767
-0.00401953
-0.00460124
-0.00523915
-0.00596334
-0.00692433
-0.00788408
-0.00869631
-0.00959788
-0.0106883
-0.0116915
-0.0122673
-0.0121908
-0.000525647
-0.000707068
-0.00048557
-0.00127854
-0.00241236
-0.00241826
-0.00270937
-0.00353405
-0.00411816
-0.00465525
-0.00530089
-0.00607385
-0.00704072
-0.00801192
-0.00887119
-0.00980906
-0.0109147
-0.0119395
-0.0125377
-0.0124552
-0.000538122
-0.000726423
-0.000502778
-0.00121138
-0.00239665
-0.00248216
-0.00271829
-0.00356854
-0.00421848
-0.00472359
-0.00535971
-0.00617697
-0.00716306
-0.00814388
-0.00903665
-0.0100069
-0.011131
-0.0121771
-0.0127957
-0.0127075
-0.00054862
-0.000745142
-0.000532079
-0.00115319
-0.0023722
-0.00255305
-0.00274054
-0.00359301
-0.00431389
-0.00480471
-0.00541909
-0.00627049
-0.00728656
-0.00828136
-0.0091966
-0.0101904
-0.0113316
-0.0123995
-0.0130393
-0.0129478
-0.000557771
-0.000762745
-0.000572767
-0.00110774
-0.00234045
-0.00262729
-0.00277842
-0.00361034
-0.00439942
-0.00489528
-0.00548194
-0.00635368
-0.00740601
-0.00842325
-0.00935447
-0.0103608
-0.0115131
-0.0126015
-0.0132646
-0.0131745
-0.000566428
-0.000778899
-0.000623787
-0.0010781
-0.00230361
-0.00270197
-0.0028328
-0.00362471
-0.00447244
-0.00499071
-0.00554969
-0.00642697
-0.00751618
-0.00856579
-0.00951224
-0.0105209
-0.0116751
-0.0127792
-0.0134668
-0.0133841
-0.000575889
-0.000793532
-0.000683314
-0.00106708
-0.00226421
-0.00277371
-0.00290297
-0.00364101
-0.00453273
-0.0050866
-0.00562224
-0.00649118
-0.00761217
-0.00870264
-0.00966958
-0.0106741
-0.0118193
-0.0129309
-0.0136415
-0.0135716
-0.000587562
-0.000807325
-0.000748858
-0.00107626
-0.00222846
-0.00283885
-0.00298606
-0.00366383
-0.0045811
-0.00517963
-0.00569898
-0.00654731
-0.00769002
-0.00882599
-0.00982286
-0.0108227
-0.0119492
-0.0130575
-0.0137862
-0.0137325
-0.00060268
-0.000821316
-0.000818474
-0.00110575
-0.00220038
-0.00289596
-0.00307801
-0.00369608
-0.00461951
-0.00526676
-0.0057795
-0.00659694
-0.00774732
-0.00892808
-0.00996446
-0.0109657
-0.012068
-0.0131616
-0.0139002
-0.0138635
-0.000622303
-0.000836935
-0.000891841
-0.00115479
-0.0021832
-0.00294638
-0.00317503
-0.00373794
-0.00465055
-0.00534503
-0.00586255
-0.00664313
-0.00778396
-0.00900238
-0.0100842
-0.0110971
-0.0121761
-0.0132462
-0.0139851
-0.0139631
-0.000647649
-0.000856117
-0.000968058
-0.0012219
-0.00217976
-0.00299225
-0.00327481
-0.0037885
-0.00467555
-0.00541191
-0.00594541
-0.00668899
-0.00780281
-0.00904505
-0.0101731
-0.0112068
-0.0122686
-0.0133113
-0.0140419
-0.0140305
-0.000680128
-0.000880829
-0.00104652
-0.00130483
-0.00219272
-0.00303597
-0.00337592
-0.00384819
-0.00469558
-0.00546483
-0.00602363
-0.00673515
-0.00780842
-0.00905568
-0.010224
-0.011284
-0.0123359
-0.0133515
-0.0140683
-0.0140636
-0.000721384
-0.000913893
-0.00112814
-0.00140102
-0.00222308
-0.00307999
-0.00347706
-0.00391794
-0.00471371
-0.00550152
-0.00609104
-0.0067786
-0.00780333
-0.00903662
-0.0102328
-0.0113197
-0.0123671
-0.0133575
-0.0140576
-0.0140581
-0.000773237
-0.000957117
-0.00121352
-0.00150874
-0.00227117
-0.00312685
-0.00357751
-0.00399784
-0.00473428
-0.00552204
-0.00614118
-0.00681341
-0.0077868
-0.00899002
-0.0101976
-0.0113066
-0.0123531
-0.0133214
-0.0140037
-0.0140068
-0.000837124
-0.00101246
-0.00130397
-0.00162707
-0.00233756
-0.00317908
-0.00367703
-0.00408711
-0.00476116
-0.00552946
-0.00616969
-0.00683232
-0.00775468
-0.00891496
-0.0101167
-0.0112386
-0.0122851
-0.0132357
-0.0139011
-0.0139056
-0.00091422
-0.00108145
-0.00140142
-0.00175549
-0.00242305
-0.00323936
-0.00377571
-0.00418443
-0.00479717
-0.00552869
-0.00617527
-0.00682817
-0.00770033
-0.00880754
-0.00998698
-0.0111098
-0.0121544
-0.0130903
-0.0137411
-0.0137476
-0.00100601
-0.00116595
-0.00150781
-0.00189377
-0.0025281
-0.00331137
-0.00387438
-0.00428825
-0.00484425
-0.00552478
-0.00615934
-0.00679533
-0.00761573
-0.00866143
-0.00980293
-0.0109127
-0.0119497
-0.0128714
-0.013509
-0.0135186
-0.00111396
-0.00126765
-0.0016254
-0.0020422
-0.00265242
-0.00339929
-0.00397607
-0.00439738
-0.00490393
-0.00552295
-0.00612524
-0.00673091
-0.00749294
-0.00846719
-0.00955511
-0.0106362
-0.0116558
-0.0125597
-0.0131845
-0.0131993
-0.0012396
-0.00138816
-0.00175645
-0.0022017
-0.00279591
-0.00350636
-0.00408606
-0.00451277
-0.00497739
-0.00552938
-0.00607899
-0.00663532
-0.00732554
-0.00821325
-0.00922882
-0.0102629
-0.0112501
-0.0121285
-0.0127401
-0.0127647
-0.0013838
-0.00152923
-0.00190395
-0.00237317
-0.00295869
-0.00363581
-0.00420974
-0.00463838
-0.00506727
-0.00555107
-0.0060307
-0.00651392
-0.00711006
-0.0078876
-0.00880429
-0.00976697
-0.0106996
-0.0115394
-0.0121329
-0.0121661
-0.00154745
-0.00169188
-0.00207107
-0.00255858
-0.00314041
-0.0037909
-0.00435279
-0.0047802
-0.00517833
-0.00559706
-0.00599463
-0.00638155
-0.00685124
-0.00748131
-0.00825655
-0.00910676
-0.00995318
-0.0107299
-0.0112944
-0.0113433
-0.00173159
-0.00187709
-0.00226024
-0.00276006
-0.0033423
-0.00397264
-0.0045226
-0.00494534
-0.0053169
-0.00567646
-0.00598893
-0.00626246
-0.00657643
-0.00700224
-0.00755835
-0.00821743
-0.00892882
-0.0095958
-0.0101133
-0.0101899
-0.00193621
-0.00208676
-0.0024734
-0.00298036
-0.00356608
-0.00418229
-0.00472531
-0.00514262
-0.00549176
-0.00579807
-0.00602989
-0.006181
-0.00632707
-0.00651351
-0.00673682
-0.00704197
-0.00745487
-0.00795016
-0.00836378
-0.0084921
-0.0021612
-0.00232125
-0.00271103
-0.00322353
-0.00381194
-0.00442354
-0.00496446
-0.00538143
-0.00571342
-0.00597501
-0.0061309
-0.00615713
-0.00611221
-0.00606996
-0.00597261
-0.00572099
-0.0053608
-0.00506463
-0.00499462
-0.00504196
-0.00240751
-0.00258011
-0.00297257
-0.00349164
-0.00408206
-0.00469748
-0.00524237
-0.00566764
-0.00598942
-0.00622008
-0.0063116
-0.00621825
-0.00594951
-0.00560578
-0.00532079
-0.00496451
-0.00412455
-0.00262548
-0.000829826
0.000614293
-0.00267775
-0.00286176
-0.00325744
-0.00378384
-0.00437931
-0.00500145
-0.00555838
-0.00599759
-0.00631504
-0.00651546
-0.00654648
-0.00636659
-0.00590495
-0.00484855
-0.00327917
-0.00149349
0.000291117
0.00196479
0.00335204
0.00411432
-0.00297098
-0.0031627
-0.00356587
-0.00409749
-0.00470224
-0.00533135
-0.00590262
-0.00634802
-0.00664831
-0.00677428
-0.00659393
-0.00581239
-0.00438818
-0.00262877
-0.000782001
0.000966551
0.00256956
0.00395728
0.00496893
0.0052996
-0.00328291
-0.00348391
-0.00389386
-0.00443007
-0.00504179
-0.00567455
-0.00624531
-0.00665789
-0.00683147
-0.0066427
-0.00588536
-0.00459426
-0.00293877
-0.00114819
0.000602813
0.00228681
0.00383781
0.00516144
0.00606555
0.00623364
-0.00361125
-0.0038235
-0.00423561
-0.00477534
-0.00538186
-0.00599817
-0.00652322
-0.00681156
-0.00670753
-0.00609329
-0.00502035
-0.00358286
-0.00190819
-0.000135086
0.00163706
0.00333284
0.00488088
0.00616377
0.00698385
0.0070319
-0.00395081
-0.00417194
-0.00458683
-0.00512131
-0.00570029
-0.0062554
-0.00666482
-0.00673946
-0.00635013
-0.00551325
-0.00429733
-0.00279301
-0.00110184
0.000689181
0.00248075
0.00418437
0.00571535
0.00695179
0.00769844
0.00765266
-0.00429157
-0.00452075
-0.00493472
-0.00545065
-0.00597647
-0.00642015
-0.00664939
-0.00652067
-0.00596763
-0.00500896
-0.00371234
-0.00216775
-0.000450128
0.00135339
0.0031501
0.00484922
0.00635758
0.00755146
0.00823752
0.00811705
-0.00462521
-0.00485782
-0.00525704
-0.00573777
-0.00618992
-0.00649745
-0.00654769
-0.00626692
-0.00560555
-0.00457624
-0.00323974
-0.00166461
6.86556e-05
0.00187432
0.00366593
0.00535447
0.00684287
0.00800347
0.0086432
0.00846662
-0.00494064
-0.00517005
-0.00553574
-0.0059618
-0.0063345
-0.00653692
-0.00646228
-0.00605208
-0.00529276
-0.00420383
-0.00283211
-0.00124378
0.000487505
0.0022827
0.00406141
0.00573509
0.0072043
0.00833844
0.00894325
0.00872515
-0.00522086
-0.0054459
-0.00576484
-0.00611436
-0.00640648
-0.0065355
-0.00640127
-0.00592506
-0.00508725
-0.0039236
-0.00249725
-0.000881986
0.000850285
0.00262924
0.0043847
0.00603713
0.00748715
0.00860036
0.0091785
0.00892816
-0.00544621
-0.00566908
-0.00595103
-0.00622897
-0.006431
-0.00647648
-0.00629321
-0.00581455
-0.00498832
-0.00381771
-0.00235859
-0.000695086
0.00108745
0.00290622
0.00467981
0.00632914
0.00776551
0.00886264
0.00942907
0.00917257
-0.0055936
-0.00582073
-0.00609483
-0.00635722
-0.00652546
-0.00650733
-0.00623211
-0.00566632
-0.00480621
-0.00365977
-0.0022542
-0.000641038
0.00110943
0.00291948
0.00470701
0.00638365
0.00784577
0.00895999
0.00953187
0.00926958
0.00772975
0.00278777
-0.00450979
-0.00960237
-0.0105999
-0.0092935
-0.00776686
-0.00672447
-0.00613772
-0.00583573
-0.00569901
-0.00566356
-0.00568894
-0.00574649
-0.00581858
-0.00589417
-0.0059663
-0.00603454
-0.00610288
-0.00617177
-0.00623702
-0.00629689
-0.0063554
-0.00641687
-0.00648127
-0.00654605
-0.00661088
-0.00667786
-0.00674857
-0.00682233
-0.00689769
-0.00697411
-0.0070522
-0.00713173
-0.00721096
-0.00728771
-0.00736116
-0.00743152
-0.00749907
-0.00756369
-0.00762612
-0.0076879
-0.00775058
-0.00781459
-0.00787962
-0.00794536
-0.00801184
-0.00807862
-0.00814481
-0.00820934
-0.00827183
-0.0083328
-0.00839309
-0.00845334
-0.00851363
-0.00857373
-0.0086333
-0.00869238
-0.0087509
-0.00880876
-0.00886557
-0.00892145
-0.00897669
-0.00903188
-0.00908705
-0.00914208
-0.0091967
-0.00925123
-0.00930591
-0.00936097
-0.00941638
-0.00947224
-0.00952843
-0.00958464
-0.00964048
-0.00969604
-0.00975197
-0.00980891
-0.00986679
-0.00992476
-0.00998202
-0.0100385
-0.0100949
-0.0101519
-0.0102094
-0.0102672
-0.0103247
-0.0103817
-0.0104381
-0.0104938
-0.0105489
-0.0106037
-0.0106587
-0.0107135
-0.0107672
-0.010819
-0.0108694
-0.0109194
-0.0109697
-0.0110195
-0.0110677
-0.0111137
-0.0111584
-0.0112027
-0.0112474
-0.0112913
-0.0113337
-0.0113742
-0.0114142
-0.0114544
-0.0114947
-0.0115339
-0.0115717
-0.0116089
-0.0116465
-0.0116842
-0.0117208
-0.0117566
-0.0117922
-0.0118282
-0.0118638
-0.0118986
-0.0119331
-0.0119676
-0.012002
-0.0120358
-0.0120695
-0.012103
-0.0121362
-0.012169
-0.0122017
-0.0122342
-0.0122664
-0.0122987
-0.0123303
-0.0123622
-0.0123933
-0.0124249
-0.0124556
-0.0124868
-0.0125173
-0.012548
-0.0125785
-0.0126087
-0.0126392
-0.012669
-0.0126994
-0.012729
-0.0127592
-0.0127887
-0.0128187
-0.0128484
-0.0128783
-0.0129083
-0.0129382
-0.0129684
-0.0129986
-0.0130289
-0.0130595
-0.0130902
-0.0131212
-0.0131522
-0.0131835
-0.0132149
-0.0132466
-0.0132784
-0.0133105
-0.0133427
-0.0133752
-0.013408
-0.013441
-0.0134745
-0.0135079
-0.0135421
-0.0135758
-0.0136105
-0.0136446
-0.0136796
-0.0137142
-0.0137497
-0.0137849
-0.0138209
-0.0138568
-0.0138934
-0.0139303
-0.013967
-0.0140053
-0.0140421
-0.0140811
-0.0141192
-0.0141571
-0.0141978
-0.0142345
-0.0142747
-0.0143152
-0.0143495
-0.0143924
-0.0144288
-0.0144548
-0.0144931
0.0069968
0.00260919
-0.00443204
-0.00946728
-0.0105194
-0.00925513
-0.00774259
-0.00670723
-0.00612525
-0.00582625
-0.00569138
-0.00565714
-0.0056834
-0.00574162
-0.00581424
-0.00589026
-0.00596274
-0.00603128
-0.00609987
-0.006169
-0.00623447
-0.00629452
-0.0063532
-0.00641482
-0.00647937
-0.00654429
-0.00660923
-0.00667631
-0.00674712
-0.00682097
-0.00689641
-0.00697291
-0.00705106
-0.00713063
-0.00720991
-0.00728671
-0.0073602
-0.00743059
-0.00749818
-0.00756284
-0.0076253
-0.00768712
-0.00774984
-0.00781387
-0.00787893
-0.00794469
-0.00801119
-0.008078
-0.0081442
-0.00820875
-0.00827127
-0.00833226
-0.00839257
-0.00845283
-0.00851314
-0.00857325
-0.00863284
-0.00869193
-0.00875047
-0.00880834
-0.00886517
-0.00892106
-0.00897631
-0.00903151
-0.00908669
-0.00914173
-0.00919636
-0.00925091
-0.00930559
-0.00936066
-0.00941607
-0.00947195
-0.00952815
-0.00958436
-0.00964021
-0.00969578
-0.00975172
-0.00980866
-0.00986655
-0.00992452
-0.0099818
-0.0100383
-0.0100947
-0.0101517
-0.0102092
-0.010267
-0.0103245
-0.0103815
-0.0104379
-0.0104936
-0.0105487
-0.0106036
-0.0106586
-0.0107134
-0.010767
-0.0108189
-0.0108693
-0.0109193
-0.0109696
-0.0110194
-0.0110676
-0.0111136
-0.0111583
-0.0112027
-0.0112473
-0.0112912
-0.0113336
-0.0113741
-0.0114141
-0.0114544
-0.0114947
-0.0115339
-0.0115716
-0.0116088
-0.0116464
-0.0116841
-0.0117208
-0.0117566
-0.0117922
-0.0118282
-0.0118637
-0.0118986
-0.0119331
-0.0119676
-0.012002
-0.0120358
-0.0120695
-0.0121029
-0.0121362
-0.012169
-0.0122016
-0.0122342
-0.0122664
-0.0122987
-0.0123302
-0.0123622
-0.0123933
-0.0124249
-0.0124556
-0.0124868
-0.0125173
-0.012548
-0.0125785
-0.0126087
-0.0126392
-0.012669
-0.0126994
-0.0127289
-0.0127592
-0.0127887
-0.0128187
-0.0128484
-0.0128783
-0.0129083
-0.0129382
-0.0129684
-0.0129986
-0.0130289
-0.0130595
-0.0130902
-0.0131212
-0.0131522
-0.0131835
-0.0132149
-0.0132466
-0.0132784
-0.0133105
-0.0133427
-0.0133752
-0.013408
-0.013441
-0.0134745
-0.0135079
-0.0135421
-0.0135758
-0.0136105
-0.0136446
-0.0136796
-0.0137142
-0.0137497
-0.0137849
-0.0138209
-0.0138568
-0.0138934
-0.0139303
-0.013967
-0.0140053
-0.0140421
-0.0140811
-0.0141192
-0.0141571
-0.0141978
-0.0142345
-0.0142747
-0.0143152
-0.0143495
-0.0143924
-0.0144288
-0.0144548
-0.0144931
0.00622776
0.00243069
-0.00426131
-0.00921307
-0.0103744
-0.00919803
-0.00771181
-0.00668348
-0.00610653
-0.0058119
-0.00568032
-0.00564843
-0.00567633
-0.00573571
-0.00580919
-0.00588585
-0.00595884
-0.00602776
-0.00609666
-0.00616606
-0.00623176
-0.00629202
-0.00635088
-0.00641267
-0.00647737
-0.00654243
-0.0066075
-0.0066747
-0.00674562
-0.00681958
-0.00689511
-0.00697169
-0.00704991
-0.00712955
-0.00720889
-0.00728574
-0.00735926
-0.00742969
-0.00749731
-0.007562
-0.00762449
-0.00768634
-0.00774909
-0.00781317
-0.00787825
-0.00794404
-0.00801056
-0.00807739
-0.00814361
-0.00820818
-0.00827071
-0.00833172
-0.00839205
-0.00845233
-0.00851266
-0.00857279
-0.0086324
-0.0086915
-0.00875005
-0.00880793
-0.00886478
-0.00892068
-0.00897594
-0.00903115
-0.00908634
-0.00914139
-0.00919604
-0.00925059
-0.00930528
-0.00936036
-0.00941578
-0.00947167
-0.00952787
-0.0095841
-0.00963995
-0.00969553
-0.00975148
-0.00980843
-0.00986632
-0.0099243
-0.00998158
-0.0100381
-0.0100945
-0.0101515
-0.010209
-0.0102668
-0.0103243
-0.0103813
-0.0104377
-0.0104934
-0.0105486
-0.0106034
-0.0106584
-0.0107132
-0.0107669
-0.0108188
-0.0108692
-0.0109192
-0.0109694
-0.0110193
-0.0110675
-0.0111135
-0.0111582
-0.0112026
-0.0112472
-0.0112911
-0.0113335
-0.0113741
-0.011414
-0.0114543
-0.0114946
-0.0115338
-0.0115715
-0.0116088
-0.0116464
-0.0116841
-0.0117207
-0.0117565
-0.0117921
-0.0118281
-0.0118637
-0.0118985
-0.0119331
-0.0119675
-0.0120019
-0.0120357
-0.0120695
-0.0121029
-0.0121361
-0.012169
-0.0122016
-0.0122342
-0.0122664
-0.0122987
-0.0123302
-0.0123622
-0.0123933
-0.0124249
-0.0124556
-0.0124867
-0.0125173
-0.012548
-0.0125785
-0.0126087
-0.0126392
-0.012669
-0.0126993
-0.0127289
-0.0127592
-0.0127887
-0.0128187
-0.0128484
-0.0128783
-0.0129083
-0.0129382
-0.0129684
-0.0129986
-0.0130289
-0.0130595
-0.0130902
-0.0131212
-0.0131522
-0.0131835
-0.0132149
-0.0132466
-0.0132784
-0.0133105
-0.0133427
-0.0133752
-0.013408
-0.013441
-0.0134745
-0.0135079
-0.0135421
-0.0135758
-0.0136105
-0.0136446
-0.0136796
-0.0137142
-0.0137497
-0.0137849
-0.0138209
-0.0138568
-0.0138934
-0.0139303
-0.013967
-0.0140053
-0.0140421
-0.0140811
-0.0141192
-0.0141571
-0.0141978
-0.0142345
-0.0142747
-0.0143152
-0.0143495
-0.0143924
-0.0144288
-0.0144548
-0.0144931
0.00549705
0.00227267
-0.00402363
-0.00887746
-0.0101728
-0.00911714
-0.0076684
-0.00664814
-0.00607754
-0.00578972
-0.00566373
-0.00563581
-0.00566642
-0.00572763
-0.00580242
-0.00588009
-0.00595386
-0.00602339
-0.00609275
-0.0061625
-0.00622849
-0.00628902
-0.00634811
-0.00641011
-0.00647499
-0.00654022
-0.00660545
-0.00667281
-0.00674387
-0.00681796
-0.00689363
-0.00697033
-0.00704866
-0.00712839
-0.0072078
-0.00728471
-0.00735828
-0.00742874
-0.00749639
-0.00756112
-0.00762364
-0.00768552
-0.00774831
-0.00781243
-0.00787755
-0.00794338
-0.00800993
-0.00807679
-0.00814302
-0.0082076
-0.00827015
-0.00833117
-0.00839152
-0.00845182
-0.00851217
-0.00857232
-0.00863194
-0.00869106
-0.00874962
-0.00880752
-0.00886438
-0.0089203
-0.00897557
-0.00903079
-0.00908599
-0.00914105
-0.00919571
-0.00925027
-0.00930497
-0.00936006
-0.00941549
-0.00947138
-0.00952759
-0.00958382
-0.00963969
-0.00969527
-0.00975123
-0.00980819
-0.00986609
-0.00992407
-0.00998136
-0.0100379
-0.0100943
-0.0101513
-0.0102088
-0.0102666
-0.0103241
-0.0103811
-0.0104375
-0.0104933
-0.0105484
-0.0106033
-0.0106583
-0.0107131
-0.0107668
-0.0108187
-0.010869
-0.0109191
-0.0109693
-0.0110191
-0.0110674
-0.0111134
-0.0111581
-0.0112025
-0.0112471
-0.0112911
-0.0113334
-0.011374
-0.011414
-0.0114542
-0.0114946
-0.0115337
-0.0115715
-0.0116087
-0.0116463
-0.011684
-0.0117207
-0.0117565
-0.0117921
-0.0118281
-0.0118637
-0.0118985
-0.011933
-0.0119675
-0.0120019
-0.0120357
-0.0120695
-0.0121029
-0.0121361
-0.0121689
-0.0122016
-0.0122342
-0.0122663
-0.0122987
-0.0123302
-0.0123622
-0.0123933
-0.0124249
-0.0124556
-0.0124867
-0.0125173
-0.012548
-0.0125785
-0.0126087
-0.0126392
-0.012669
-0.0126993
-0.0127289
-0.0127592
-0.0127887
-0.0128187
-0.0128484
-0.0128783
-0.0129083
-0.0129382
-0.0129684
-0.0129986
-0.0130289
-0.0130595
-0.0130902
-0.0131212
-0.0131522
-0.0131835
-0.0132149
-0.0132466
-0.0132784
-0.0133105
-0.0133427
-0.0133752
-0.013408
-0.013441
-0.0134745
-0.0135079
-0.0135421
-0.0135758
-0.0136105
-0.0136446
-0.0136796
-0.0137142
-0.0137497
-0.0137849
-0.0138209
-0.0138568
-0.0138934
-0.0139303
-0.013967
-0.0140053
-0.0140421
-0.0140811
-0.0141192
-0.0141571
-0.0141978
-0.0142345
-0.0142747
-0.0143152
-0.0143495
-0.0143924
-0.0144288
-0.0144548
-0.0144931
0.00479582
0.0021049
-0.00376774
-0.0085127
-0.00994643
-0.00902515
-0.00761854
-0.00660418
-0.00603892
-0.00575908
-0.00564044
-0.00561798
-0.00565237
-0.0057162
-0.00579288
-0.00587202
-0.00594698
-0.00601745
-0.00608748
-0.0061577
-0.00622409
-0.00628498
-0.00634442
-0.00640669
-0.00647179
-0.00653724
-0.0066027
-0.00667027
-0.00674154
-0.00681583
-0.00689169
-0.00696858
-0.0070471
-0.00712698
-0.00720651
-0.0072835
-0.00735713
-0.00742763
-0.00749531
-0.00756006
-0.00762261
-0.00768453
-0.00774737
-0.00781155
-0.00787673
-0.00794262
-0.00800923
-0.00807611
-0.00814236
-0.00820695
-0.0082695
-0.00833054
-0.0083909
-0.00845124
-0.00851161
-0.00857179
-0.00863144
-0.00869057
-0.00874915
-0.00880706
-0.00886393
-0.00891986
-0.00897515
-0.00903038
-0.0090856
-0.00914067
-0.00919534
-0.00924991
-0.00930463
-0.00935973
-0.00941517
-0.00947106
-0.00952728
-0.00958352
-0.0096394
-0.00969499
-0.00975096
-0.00980793
-0.00986583
-0.00992382
-0.00998111
-0.0100376
-0.0100941
-0.010151
-0.0102086
-0.0102664
-0.0103239
-0.0103809
-0.0104374
-0.0104931
-0.0105482
-0.0106031