/*--------------------------------*- C++ -*----------------------------------*\
| =========                 |                                                 |
| \\      /  F ield         | OpenFOAM: The Open Source CFD Toolbox           |
|  \\    /   O peration     | Version:  v2012                                 |
|   \\  /    A nd           | Website:  www.openfoam.com                      |
|    \\/     M anipulation  |                                                 |
\*---------------------------------------------------------------------------*/
FoamFile
{
    version     2.0;
    format      ascii;
    class       surfaceScalarField;
    location    "1";
    object      phi;
}
// * * * * * * * * * * * * * * * * * * * * * * * * * * * * * * * * * * * * * //

dimensions      [0 3 -1 0 0 0 0];
oriented        oriented;


internalField   nonuniform List<scalar> 
34900
(
1.17234e-06
1.34194e-07
1.1618e-06
-3.06571e-07
1.17192e-06
2.42869e-07
1.15796e-06
-3.42995e-07
1.17392e-06
3.07693e-07
1.16141e-06
6.01511e-08
1.1684e-06
6.91736e-08
1.16016e-06
1.33327e-07
1.16371e-06
8.71717e-08
1.15207e-06
2.99888e-08
1.15628e-06
4.4657e-08
1.14577e-06
1.98929e-08
1.15113e-06
3.78896e-08
1.13961e-06
-3.60166e-09
1.14608e-06
2.30403e-08
1.13339e-06
-1.32739e-08
1.14029e-06
2.92928e-08
1.12666e-06
-4.80536e-09
1.12936e-06
6.67079e-08
1.35197e-08
1.09237e-06
1.22647e-06
1.31988e-07
1.21641e-06
-2.96513e-07
1.22469e-06
2.34587e-07
1.21211e-06
-3.30411e-07
1.2253e-06
2.94497e-07
1.21716e-06
6.82973e-08
1.22106e-06
6.52691e-08
1.21809e-06
1.36298e-07
1.21764e-06
8.76188e-08
1.21079e-06
3.68367e-08
1.2095e-06
4.59529e-08
1.20618e-06
2.32125e-08
1.20332e-06
4.07511e-08
1.20215e-06
-2.43484e-09
1.19637e-06
2.88248e-08
1.1991e-06
-1.60061e-08
1.18721e-06
4.11769e-08
1.19585e-06
-1.3441e-08
1.17135e-06
9.12114e-08
9.23615e-09
1.17563e-06
1.28235e-06
1.32422e-07
1.27444e-06
-2.88608e-07
1.27957e-06
2.29462e-07
1.2696e-06
-3.20442e-07
1.27782e-06
2.86281e-07
1.277e-06
6.91138e-08
1.27529e-06
6.69797e-08
1.27944e-06
1.32142e-07
1.27351e-06
9.35518e-08
1.27372e-06
3.66333e-08
1.26575e-06
5.39168e-08
1.26939e-06
1.95721e-08
1.2602e-06
4.99405e-08
1.26508e-06
-7.31663e-09
1.25461e-06
3.92996e-08
1.26022e-06
-2.16149e-08
1.24868e-06
5.27155e-08
1.25259e-06
-1.73556e-08
1.24053e-06
1.0328e-07
2.22105e-08
1.22755e-06
1.34085e-06
1.35671e-07
1.33622e-06
-2.8397e-07
1.33777e-06
2.27911e-07
1.33143e-06
-3.14104e-07
1.33399e-06
2.83716e-07
1.34044e-06
6.26688e-08
1.33369e-06
7.37302e-08
1.34226e-06
1.23569e-07
1.33402e-06
1.01796e-07
1.3375e-06
3.31494e-08
1.32786e-06
6.35564e-08
1.33241e-06
1.50271e-08
1.32404e-06
5.83022e-08
1.32743e-06
-1.07041e-08
1.32026e-06
4.64718e-08
1.32186e-06
-2.32179e-08
1.31597e-06
5.86098e-08
1.31385e-06
-1.52417e-08
1.30877e-06
1.08362e-07
3.91372e-08
1.29185e-06
1.40305e-06
1.40978e-07
1.40147e-06
-2.82391e-07
1.40029e-06
2.29086e-07
1.39692e-06
-3.10735e-07
1.39552e-06
2.85123e-07
1.4062e-06
5.19895e-08
1.39777e-06
8.21562e-08
1.40669e-06
1.14652e-07
1.40012e-06
1.08361e-07
1.40318e-06
3.00888e-08
1.39577e-06
7.09699e-08
1.39822e-06
1.25749e-08
1.39302e-06
6.3503e-08
1.39385e-06
-1.15341e-08
1.38969e-06
5.06288e-08
1.38887e-06
-2.23913e-08
1.38527e-06
6.22032e-08
1.38094e-06
-1.09083e-08
1.37766e-06
1.11641e-07
5.62007e-08
1.3606e-06
1.46985e-06
1.46808e-07
1.47001e-06
-2.8256e-07
1.46768e-06
2.31416e-07
1.46554e-06
-3.08595e-07
1.46269e-06
2.87974e-07
1.47402e-06
4.06679e-08
1.46713e-06
8.90421e-08
1.47416e-06
1.07623e-07
1.47086e-06
1.11664e-07
1.47255e-06
2.83989e-08
1.46787e-06
7.56446e-08
1.46866e-06
1.17852e-08
1.46553e-06
6.66309e-08
1.46516e-06
-1.11648e-08
1.46226e-06
5.35318e-08
1.46049e-06
-2.06194e-08
1.45775e-06
6.49376e-08
1.45202e-06
-5.17798e-09
1.45003e-06
1.13636e-07
7.34478e-08
1.43278e-06
1.5415e-06
1.51524e-07
1.54189e-06
-2.82949e-07
1.53983e-06
2.33474e-07
1.53729e-06
-3.06055e-07
1.53475e-06
2.90519e-07
1.54448e-06
3.09338e-08
1.54033e-06
9.31913e-08
1.54548e-06
1.02476e-07
1.54482e-06
1.12324e-07
1.54583e-06
2.73876e-08
1.543e-06
7.84792e-08
1.54324e-06
1.15385e-08
1.54112e-06
6.87584e-08
1.54035e-06
-1.03992e-08
1.53811e-06
5.57726e-08
1.53567e-06
-1.8177e-08
1.53375e-06
6.68515e-08
1.52662e-06
1.95573e-09
1.52585e-06
1.14406e-07
9.05527e-08
1.50874e-06
1.6175e-06
1.54155e-07
1.61716e-06
-2.82609e-07
1.6161e-06
2.3453e-07
1.61242e-06
-3.02378e-07
1.61074e-06
2.92202e-07
1.61827e-06
2.34026e-08
1.61641e-06
9.50533e-08
1.62056e-06
9.83269e-08
1.62142e-06
1.11466e-07
1.62248e-06
2.63262e-08
1.62079e-06
8.01697e-08
1.62109e-06
1.12304e-08
1.61963e-06
7.02216e-08
1.61867e-06
-9.4346e-09
1.6171e-06
5.73387e-08
1.61395e-06
-1.50297e-08
1.61298e-06
6.78208e-08
1.60456e-06
1.03763e-08
1.60477e-06
1.142e-07
1.06938e-07
1.58838e-06
1.69704e-06
1.54685e-07
1.6958e-06
-2.81362e-07
1.69582e-06
2.34505e-07
1.69114e-06
-2.97691e-07
1.69028e-06
2.93055e-07
1.69587e-06
1.78183e-08
1.69539e-06
9.55327e-08
1.6992e-06
9.45177e-08
1.70082e-06
1.09845e-07
1.70219e-06
2.49566e-08
1.70135e-06
8.10109e-08
1.70187e-06
1.0712e-08
1.70107e-06
7.10122e-08
1.69989e-06
-8.25345e-09
1.69914e-06
5.80955e-08
1.69524e-06
-1.11333e-08
1.69527e-06
6.77866e-08
1.6858e-06
1.98503e-08
1.68665e-06
1.13346e-07
1.22038e-07
1.67155e-06
1.77967e-06
1.53741e-07
1.77779e-06
-2.7949e-07
1.77868e-06
2.33619e-07
1.77351e-06
-2.92524e-07
1.77349e-06
2.93079e-07
1.77756e-06
1.37468e-08
1.77781e-06
9.52834e-08
1.78148e-06
9.08475e-08
1.78349e-06
1.07831e-07
1.7851e-06
2.33558e-08
1.78499e-06
8.11201e-08
1.78564e-06
1.0062e-08
1.7856e-06
7.1051e-08
1.7841e-06
-6.75949e-09
1.78428e-06
5.7924e-08
1.77961e-06
-6.468e-09
1.7806e-06
6.67976e-08
1.7704e-06
3.00502e-08
1.7715e-06
1.12246e-07
1.35354e-07
1.75818e-06
1.86543e-06
1.52064e-07
1.86327e-06
-2.77333e-07
1.86478e-06
2.32113e-07
1.85961e-06
-2.8736e-07
1.86058e-06
2.92109e-07
1.86348e-06
1.08463e-08
1.86416e-06
9.46015e-08
1.86764e-06
8.73743e-08
1.86988e-06
1.0559e-07
1.8715e-06
2.17339e-08
1.87206e-06
8.05633e-08
1.87266e-06
9.46044e-09
1.87344e-06
7.02737e-08
1.8715e-06
-4.82449e-09
1.87265e-06
5.67722e-08
1.86725e-06
-1.06525e-09
1.86901e-06
6.50389e-08
1.85849e-06
4.05685e-08
1.85938e-06
1.11355e-07
1.46504e-07
1.84823e-06
1.95474e-06
1.50162e-07
1.95249e-06
-2.75081e-07
1.95444e-06
2.3016e-07
1.94952e-06
-2.82439e-07
1.95167e-06
2.89963e-07
1.95363e-06
8.87856e-09
1.95468e-06
9.35523e-08
1.95784e-06
8.42147e-08
1.96026e-06
1.0317e-07
1.96168e-06
2.03143e-08
1.96287e-06
7.93781e-08
1.96321e-06
9.11413e-09
1.96484e-06
6.86456e-08
1.96235e-06
-2.33308e-09
1.96444e-06
5.46826e-08
1.95841e-06
4.96142e-09
1.96063e-06
6.28268e-08
1.95023e-06
5.09603e-08
1.95049e-06
1.11095e-07
1.55303e-07
1.9417e-06
2.0481e-06
1.48255e-07
2.04578e-06
-2.72768e-07
2.04808e-06
2.27865e-07
2.0434e-06
-2.77765e-07
2.04679e-06
2.86574e-07
2.048e-06
7.6718e-09
2.04946e-06
9.20953e-08
2.05221e-06
8.14638e-08
2.05485e-06
1.00524e-07
2.05589e-06
1.92788e-08
2.0577e-06
7.75685e-08
2.0576e-06
9.20774e-09
2.06009e-06
6.61609e-08
2.05698e-06
7.74759e-10
2.05987e-06
5.17939e-08
2.05342e-06
1.14123e-08
2.05568e-06
6.05643e-08
2.04584e-06
6.08034e-08
2.04516e-06
1.11772e-07
1.61795e-07
2.03867e-06
2.14588e-06
1.46373e-07
2.14347e-06
-2.70353e-07
2.14605e-06
2.25284e-07
2.14148e-06
-2.732e-07
2.14606e-06
2.81997e-07
2.14662e-06
7.10874e-09
2.14857e-06
9.01502e-08
2.15084e-06
7.919e-08
2.15383e-06
9.75358e-08
2.15436e-06
1.87549e-08
2.15682e-06
7.51061e-08
2.15615e-06
9.8724e-09
2.15947e-06
6.28483e-08
2.15577e-06
4.46984e-09
2.15922e-06
4.83399e-08
2.15263e-06
1.8008e-08
2.15451e-06
5.86802e-08
2.14556e-06
6.97538e-08
2.1438e-06
1.1353e-07
1.66241e-07
2.13936e-06
2.24839e-06
1.44469e-07
2.24581e-06
-2.67773e-07
2.24867e-06
2.22424e-07
2.24403e-06
-2.6856e-07
2.24969e-06
2.76341e-07
2.24967e-06
7.13089e-09
2.25219e-06
8.76225e-08
2.25393e-06
7.74534e-08
2.25741e-06
9.40585e-08
2.25734e-06
1.88241e-08
2.2605e-06
7.19473e-08
2.2592e-06
1.11691e-08
2.26326e-06
5.87858e-08
2.25912e-06
8.61795e-09
2.26283e-06
4.46267e-08
2.2564e-06
2.44332e-08
2.25753e-06
5.7555e-08
2.2497e-06
7.75845e-08
2.24688e-06
1.16347e-07
1.69043e-07
2.24408e-06
2.35586e-06
1.42487e-07
2.35305e-06
-2.64968e-07
2.35622e-06
2.1926e-07
2.35133e-06
-2.63671e-07
2.35797e-06
2.69697e-07
2.35737e-06
7.73789e-09
2.36058e-06
8.44115e-08
2.36171e-06
7.63182e-08
2.36582e-06
8.99473e-08
2.36512e-06
1.95309e-08
2.369e-06
6.80635e-08
2.36709e-06
1.30753e-08
2.37176e-06
5.41198e-08
2.3674e-06
1.29824e-08
2.37102e-06
4.1002e-08
2.36506e-06
3.03896e-08
2.36517e-06
5.7452e-08
2.35853e-06
8.42227e-08
2.35483e-06
1.20047e-07
1.70673e-07
2.3532e-06
2.4685e-06
1.40379e-07
2.46541e-06
-2.61874e-07
2.46894e-06
2.15733e-07
2.46365e-06
-2.58383e-07
2.47124e-06
2.62103e-07
2.47e-06
8.97665e-09
2.474e-06
8.04136e-08
2.47447e-06
7.58521e-08
2.47933e-06
8.50858e-08
2.47798e-06
2.08826e-08
2.48257e-06
6.3474e-08
2.48017e-06
1.54737e-08
2.48522e-06
4.90734e-08
2.48094e-06
1.72553e-08
2.48414e-06
3.78085e-08
2.47888e-06
3.56423e-08
2.47786e-06
5.84766e-08
2.47231e-06
8.97679e-08
2.46804e-06
1.24323e-07
1.71608e-07
2.4671e-06
2.58656e-06
1.38109e-07
2.58311e-06
-2.5842e-07
2.58708e-06
2.11759e-07
2.58127e-06
-2.52566e-07
2.58983e-06
2.53539e-07
2.58788e-06
1.09247e-08
2.59277e-06
7.55286e-08
2.5925e-06
7.6116e-08
2.59819e-06
7.94043e-08
2.59623e-06
2.28372e-08
2.60143e-06
5.82729e-08
2.59876e-06
1.81475e-08
2.60389e-06
4.39404e-08
2.60005e-06
2.10982e-08
2.60252e-06
3.53388e-08
2.59811e-06
4.00532e-08
2.59602e-06
6.05618e-08
2.59133e-06
9.44644e-08
2.58684e-06
1.28811e-07
1.72277e-07
2.58617e-06
2.71029e-06
1.35648e-07
2.70639e-06
-2.5452e-07
2.71092e-06
2.07232e-07
2.70445e-06
-2.46102e-07
2.71405e-06
2.43939e-07
2.71131e-06
1.36724e-08
2.71716e-06
6.96699e-08
2.71613e-06
7.71459e-08
2.72264e-06
7.28957e-08
2.7202e-06
2.52844e-08
2.72582e-06
5.26448e-08
2.72318e-06
2.07917e-08
2.72807e-06
3.90506e-08
2.72496e-06
2.42037e-08
2.72653e-06
3.37768e-08
2.72296e-06
4.36222e-08
2.72002e-06
6.34949e-08
2.71588e-06
9.86121e-08
2.71149e-06
1.33199e-07
1.72993e-07
2.71077e-06
2.83995e-06
1.32968e-07
2.8355e-06
-2.50077e-07
2.84071e-06
2.02027e-07
2.83349e-06
-2.38878e-07
2.84421e-06
2.33216e-07
2.84058e-06
1.73027e-08
2.84747e-06
6.27812e-08
2.84568e-06
7.893e-08
2.85294e-06
6.56343e-08
2.8502e-06
2.8024e-08
2.85598e-06
4.68669e-08
2.85373e-06
2.30407e-08
2.85806e-06
3.47267e-08
2.85591e-06
2.63522e-08
2.85653e-06
3.31545e-08
2.85366e-06
4.64887e-08
2.85018e-06
6.6982e-08
2.84632e-06
1.02469e-07
2.84221e-06
1.37309e-07
1.7392e-07
2.84128e-06
2.97582e-06
1.30043e-07
2.97072e-06
-2.44979e-07
2.97675e-06
1.96004e-07
2.96865e-06
-2.30784e-07
2.98059e-06
2.21277e-07
2.97602e-06
2.1873e-08
2.98395e-06
5.48545e-08
2.98149e-06
8.13851e-08
2.98933e-06
5.77935e-08
2.9866e-06
3.07568e-08
2.99218e-06
4.12824e-08
2.9907e-06
2.45257e-08
2.99421e-06
3.1219e-08
2.99308e-06
2.74772e-08
2.99292e-06
3.33209e-08
2.99051e-06
4.88922e-08
2.98677e-06
7.07239e-08
2.98304e-06
1.06196e-07
2.97922e-06
1.4113e-07
1.75095e-07
2.97805e-06
3.1182e-06
1.26848e-07
3.11233e-06
-2.39109e-07
3.11932e-06
1.89018e-07
3.11026e-06
-2.21724e-07
3.12348e-06
2.08051e-07
3.11796e-06
2.73944e-08
3.12687e-06
4.59509e-08
3.12392e-06
8.43348e-08
3.13205e-06
4.96563e-08
3.12972e-06
3.30881e-08
3.13473e-06
3.62726e-08
3.13433e-06
2.4924e-08
3.13691e-06
2.86473e-08
3.13669e-06
2.76875e-08
3.13604e-06
3.39804e-08
3.13383e-06
5.10969e-08
3.13008e-06
7.44769e-08
3.12641e-06
1.09867e-07
3.12277e-06
1.4477e-07
1.76499e-07
3.12136e-06
3.2674e-06
1.2336e-07
3.26064e-06
-2.32348e-07
3.26873e-06
1.80928e-07
3.25863e-06
-2.11626e-07
3.27317e-06
1.93508e-07
3.26676e-06
3.38084e-08
3.27648e-06
3.62255e-08
3.27333e-06
8.74921e-08
3.28138e-06
4.16052e-08
3.2799e-06
3.45706e-08
3.28398e-06
3.21907e-08
3.28485e-06
2.40519e-08
3.28657e-06
2.69308e-08
3.287e-06
2.72541e-08
3.28619e-06
3.4785e-08
3.28397e-06
5.33241e-08
3.28032e-06
7.81197e-08
3.27671e-06
1.13483e-07
3.27312e-06
1.48362e-07
1.78132e-07
3.27148e-06
3.42373e-06
1.1956e-07
3.41597e-06
-2.24588e-07
3.42528e-06
1.71615e-07
3.41412e-06
-2.0046e-07
3.42994e-06
1.77686e-07
3.42279e-06
4.09619e-08
3.43307e-06
2.59418e-08
3.43009e-06
9.04718e-08
3.43762e-06
3.40753e-08
3.43741e-06
3.4782e-08
3.44032e-06
2.92763e-08
3.44243e-06
2.19452e-08
3.4436e-06
2.57565e-08
3.44428e-06
2.65754e-08
3.44361e-06
3.54605e-08
3.44116e-06
5.57693e-08
3.43755e-06
8.17282e-08
3.43405e-06
1.16989e-07
3.43049e-06
1.51925e-07
1.80032e-07
3.42859e-06
3.58753e-06
1.15437e-07
3.57868e-06
-2.15737e-07
3.5893e-06
1.60998e-07
3.5771e-06
-1.88259e-07
3.59407e-06
1.60711e-07
3.58644e-06
4.85905e-08
3.59691e-06
1.54793e-08
3.59458e-06
9.28021e-08
3.60113e-06
2.75179e-08
3.60252e-06
3.34011e-08
3.60422e-06
2.75729e-08
3.60729e-06
1.88725e-08
3.60836e-06
2.46876e-08
3.60884e-06
2.60988e-08
3.60829e-06
3.6011e-08
3.60535e-06
5.87085e-08
3.60152e-06
8.55521e-08
3.59818e-06
1.20335e-07
3.59488e-06
1.55223e-07
1.82139e-07
3.59277e-06
3.75915e-06
1.10988e-07
3.74915e-06
-2.05734e-07
3.76109e-06
1.49063e-07
3.74798e-06
-1.75148e-07
3.76586e-06
1.42826e-07
3.75815e-06
5.63061e-08
3.7683e-06
5.32115e-09
3.76713e-06
9.39735e-08
3.77233e-06
2.23248e-08
3.77541e-06
3.03129e-08
3.77613e-06
2.68607e-08
3.77968e-06
1.53149e-08
3.78103e-06
2.3339e-08
3.78078e-06
2.63532e-08
3.77981e-06
3.69757e-08
3.77618e-06
6.23464e-08
3.77188e-06
8.98461e-08
3.76866e-06
1.23559e-07
3.76606e-06
1.57822e-07
1.8407e-07
3.76413e-06
3.93895e-06
1.06224e-07
3.92779e-06
-1.94568e-07
3.94096e-06
1.35887e-07
3.92717e-06
-1.6136e-07
3.94561e-06
1.2439e-07
3.9383e-06
6.36156e-08
3.94762e-06
-3.99697e-09
3.94807e-06
9.35214e-08
3.95167e-06
1.8725e-08
3.95631e-06
2.56746e-08
3.95643e-06
2.67414e-08
3.9599e-06
1.18445e-08
3.96154e-06
2.16979e-08
3.9599e-06
2.79925e-08
3.95764e-06
3.92347e-08
3.95351e-06
6.64787e-08
3.94876e-06
9.45906e-08
3.9456e-06
1.26728e-07
3.94396e-06
1.59457e-07
1.8517e-07
3.94286e-06
4.1273e-06
1.01171e-07
4.11502e-06
-1.82288e-07
4.12924e-06
1.21673e-07
4.11514e-06
-1.47268e-07
4.13364e-06
1.05899e-07
4.12731e-06
6.99382e-08
4.13526e-06
-1.19411e-08
4.13766e-06
9.11166e-08
4.13967e-06
1.67142e-08
4.14545e-06
1.98994e-08
4.14538e-06
2.68125e-08
4.14809e-06
9.12979e-09
4.1495e-06
2.02939e-08
4.14599e-06
3.14989e-08
4.14222e-06
4.30029e-08
4.13792e-06
7.07759e-08
4.13307e-06
9.94465e-08
4.12995e-06
1.29846e-07
4.12921e-06
1.60193e-07
1.85022e-07
4.12936e-06
4.3246e-06
9.58766e-08
4.31133e-06
-1.69023e-07
4.32623e-06
1.06774e-07
4.31234e-06
-1.33376e-07
4.3303e-06
8.79342e-08
4.32554e-06
7.47055e-08
4.33172e-06
-1.81197e-08
4.33613e-06
8.66982e-08
4.33682e-06
1.60236e-08
4.34312e-06
1.36001e-08
4.34304e-06
2.68912e-08
4.34432e-06
7.85558e-09
4.34456e-06
2.00552e-08
4.33965e-06
3.64059e-08
4.33465e-06
4.80045e-08
4.33051e-06
7.49198e-08
4.32594e-06
1.04007e-07
4.32295e-06
1.32841e-07
4.32294e-06
1.60204e-07
1.83764e-07
4.3242e-06
4.53124e-06
9.04087e-08
4.51721e-06
-1.54995e-07
4.53227e-06
9.1714e-08
4.5192e-06
-1.20301e-07
4.53604e-06
7.10962e-08
4.53329e-06
7.74514e-08
4.53756e-06
-2.23891e-08
4.5437e-06
8.05617e-08
4.54354e-06
1.61768e-08
4.54962e-06
7.52493e-09
4.5494e-06
2.71065e-08
4.54867e-06
8.5895e-09
4.54753e-06
2.11983e-08
4.54188e-06
4.20551e-08
4.53606e-06
5.38191e-08
4.53226e-06
7.87273e-08
4.52828e-06
1.0798e-07
4.52559e-06
1.3553e-07
4.52607e-06
1.59729e-07
1.81787e-07
4.52804e-06
4.74766e-06
8.48595e-08
4.73319e-06
-1.40522e-07
4.74773e-06
7.71733e-08
4.73615e-06
-1.08717e-07
4.75133e-06
5.59088e-08
4.75085e-06
7.79323e-08
4.75343e-06
-2.4963e-08
4.76064e-06
7.33488e-08
4.7601e-06
1.6715e-08
4.76527e-06
2.35141e-09
4.76452e-06
2.78643e-08
4.76165e-06
1.14548e-08
4.75952e-06
2.3332e-08
4.75363e-06
4.79398e-08
4.7474e-06
6.00503e-08
4.74391e-06
8.22229e-08
4.74067e-06
1.11216e-07
4.73858e-06
1.37621e-07
4.73919e-06
1.59121e-07
1.79354e-07
4.74162e-06
4.97432e-06
7.93396e-08
4.9598e-06
-1.26e-07
4.97303e-06
6.39445e-08
4.96356e-06
-9.92518e-08
4.97679e-06
4.26744e-08
4.97848e-06
7.6249e-08
4.97989e-06
-2.63703e-08
4.98737e-06
6.58661e-08
4.98664e-06
1.74414e-08
4.99046e-06
-1.4657e-09
4.98888e-06
2.94391e-08
4.9841e-06
1.62377e-08
4.98141e-06
2.60204e-08
4.97576e-06
5.35892e-08
4.96937e-06
6.64413e-08
4.96603e-06
8.55626e-08
4.9636e-06
1.13646e-07
4.9623e-06
1.3892e-07
4.96283e-06
1.58591e-07
1.76628e-07
4.96556e-06
5.21168e-06
7.39738e-08
5.19758e-06
-1.11897e-07
5.20867e-06
5.28511e-08
5.20179e-06
-9.23689e-08
5.21312e-06
3.13395e-08
5.21646e-06
7.29091e-08
5.21737e-06
-2.72764e-08
5.22443e-06
5.88054e-08
5.22328e-06
1.85915e-08
5.22566e-06
-3.84513e-09
5.22323e-06
3.18741e-08
5.21696e-06
2.25035e-08
5.21388e-06
2.91042e-08
5.20892e-06
5.85476e-08
5.20255e-06
7.28079e-08
5.19917e-06
8.89451e-08
5.1976e-06
1.15219e-07
5.19702e-06
1.39493e-07
5.19756e-06
1.58053e-07
1.73743e-07
5.20044e-06
5.46027e-06
6.88922e-08
5.44709e-06
-9.87165e-08
5.45538e-06
4.45611e-08
5.45114e-06
-8.81258e-08
5.46101e-06
2.14681e-08
5.46526e-06
6.86527e-08
5.46614e-06
-2.81532e-08
5.47246e-06
5.24864e-08
5.47036e-06
2.06888e-08
5.47134e-06
-4.82705e-09
5.4684e-06
3.48163e-08
5.46105e-06
2.98584e-08
5.45756e-06
3.25898e-08
5.45358e-06
6.25345e-08
5.44745e-06
7.8929e-08
5.44387e-06
9.25249e-08
5.44312e-06
1.1597e-07
5.44311e-06
1.3951e-07
5.44387e-06
1.57288e-07
1.70785e-07
5.44683e-06
5.72063e-06
6.42203e-08
5.70888e-06
-8.69669e-08
5.71403e-06
3.94132e-08
5.71189e-06
-8.59901e-08
5.72105e-06
1.23146e-08
5.72546e-06
6.42377e-08
5.7264e-06
-2.90939e-08
5.73208e-06
4.68047e-08
5.72854e-06
2.42339e-08
5.72811e-06
-4.3949e-09
5.72515e-06
3.77731e-08
5.71718e-06
3.78321e-08
5.71316e-06
3.66008e-08
5.71015e-06
6.55493e-08
5.70457e-06
8.45045e-08
5.70078e-06
9.63207e-08
5.70061e-06
1.16143e-07
5.70108e-06
1.39032e-07
5.70224e-06
1.56134e-07
1.67755e-07
5.70527e-06
5.99335e-06
6.00628e-08
5.9835e-06
-7.71201e-08
5.98553e-06
3.7387e-08
5.98444e-06
-8.4905e-08
5.99371e-06
3.05301e-09
5.99771e-06
6.02352e-08
5.99845e-06
-2.98321e-08
6.00375e-06
4.15028e-08
5.99871e-06
2.9272e-08
5.99668e-06
-2.36519e-09
5.99418e-06
4.02779e-08
5.98602e-06
4.59866e-08
5.98136e-06
4.12629e-08
5.97912e-06
6.77901e-08
5.97437e-06
8.92572e-08
5.97053e-06
1.00157e-07
5.97053e-06
1.16139e-07
5.97153e-06
1.38038e-07
5.97316e-06
1.54501e-07
1.64602e-07
5.97631e-06
6.27906e-06
5.64914e-08
6.27148e-06
-6.95417e-08
6.2707e-06
3.81722e-08
6.26937e-06
-8.35779e-08
6.27933e-06
-6.9112e-09
6.28272e-06
5.68504e-08
6.28278e-06
-2.98948e-08
6.28776e-06
3.65251e-08
6.28167e-06
3.53614e-08
6.27792e-06
1.38839e-09
6.27601e-06
4.21816e-08
6.26821e-06
5.37887e-08
6.26284e-06
4.66281e-08
6.26105e-06
6.95802e-08
6.25729e-06
9.30183e-08
6.25372e-06
1.03734e-07
6.25353e-06
1.16322e-07
6.25502e-06
1.36552e-07
6.25718e-06
1.52338e-07
1.61258e-07
6.26053e-06
6.57842e-06
5.3542e-08
6.57326e-06
-6.4386e-08
6.57026e-06
4.11713e-08
6.56748e-06
-8.07897e-08
6.5783e-06
-1.77347e-08
6.58118e-06
5.397e-08
6.58006e-06
-2.87749e-08
6.58474e-06
3.18415e-08
6.57815e-06
4.19513e-08
6.57261e-06
6.93663e-09
6.5713e-06
4.349e-08
6.5643e-06
6.07841e-08
6.5583e-06
5.26273e-08
6.55662e-06
7.12667e-08
6.55389e-06
9.5748e-08
6.55084e-06
1.0678e-07
6.55034e-06
1.16825e-07
6.55218e-06
1.34705e-07
6.55488e-06
1.49641e-07
1.57652e-07
6.55849e-06
6.89212e-06
5.12125e-08
6.88926e-06
-6.15275e-08
6.88491e-06
4.55259e-08
6.87981e-06
-7.56943e-08
6.89095e-06
-2.88713e-08
6.89376e-06
5.11617e-08
6.89103e-06
-2.60447e-08
6.89555e-06
2.73211e-08
6.88889e-06
4.8605e-08
6.8817e-06
1.41262e-08
6.88066e-06
4.45316e-08
6.87485e-06
6.65973e-08
6.86841e-06
5.90656e-08
6.86652e-06
7.31528e-08
6.86476e-06
9.75144e-08
6.8624e-06
1.09133e-07
6.86168e-06
1.17553e-07
6.86371e-06
1.32676e-07
6.86688e-06
1.46464e-07
1.53736e-07
6.8708e-06
7.22088e-06
4.9465e-08
7.21996e-06
-6.06077e-08
7.21524e-06
5.02505e-08
7.20743e-06
-6.78849e-08
7.2179e-06
-3.93423e-08
7.22089e-06
4.81745e-08
7.21645e-06
-2.16107e-08
7.22071e-06
2.30606e-08
7.21468e-06
5.46429e-08
7.20603e-06
2.27736e-08
7.20486e-06
4.56969e-08
7.20039e-06
7.10724e-08
7.19384e-06
6.56123e-08
7.19154e-06
7.54537e-08
7.19058e-06
9.84739e-08
7.18896e-06
1.10752e-07
7.18824e-06
1.18273e-07
7.19032e-06
1.30601e-07
7.19387e-06
1.42915e-07
1.49494e-07
7.19811e-06
7.56546e-06
4.82261e-08
7.56602e-06
-6.11609e-08
7.5618e-06
5.44685e-08
7.55133e-06
-5.74172e-08
7.56009e-06
-4.81015e-08
7.56334e-06
4.49212e-08
7.55715e-06
-1.54154e-08
7.56094e-06
1.92739e-08
7.55607e-06
5.9509e-08
7.54646e-06
3.23793e-08
7.54467e-06
4.74908e-08
7.54153e-06
7.42162e-08
7.53526e-06
7.18804e-08
7.53247e-06
7.82469e-08
7.53207e-06
9.88674e-08
7.53117e-06
1.11653e-07
7.53071e-06
1.18739e-07
7.53278e-06
1.28526e-07
7.53658e-06
1.39115e-07
1.44956e-07
7.54112e-06
7.92665e-06
4.73879e-08
7.92809e-06
-6.26052e-08
7.92518e-06
5.73777e-08
7.91225e-06
-4.44802e-08
7.9188e-06
-5.46505e-08
7.92197e-06
4.17444e-08
7.91398e-06
-7.41701e-09
7.91701e-06
1.624e-08
7.9138e-06
6.27218e-08
7.90378e-06
4.2399e-08
7.90099e-06
5.02813e-08
7.89893e-06
7.62704e-08
7.89331e-06
7.75017e-08
7.89011e-06
8.14504e-08
7.88998e-06
9.89908e-08
7.88976e-06
1.11878e-07
7.88974e-06
1.18762e-07
7.89184e-06
1.26418e-07
7.89579e-06
1.35167e-07
1.40172e-07
7.90058e-06
8.30525e-06
4.6823e-08
8.30704e-06
-6.43982e-08
8.30587e-06
5.85451e-08
8.29102e-06
-2.96277e-08
8.29497e-06
-5.85964e-08
8.2979e-06
3.88098e-08
8.28805e-06
2.43536e-09
8.28974e-06
1.45502e-08
8.28847e-06
6.39882e-08
8.2787e-06
5.2169e-08
8.27474e-06
5.4239e-08
8.27337e-06
7.76482e-08
8.26868e-06
8.2188e-08
8.26527e-06
8.48616e-08
8.26515e-06
9.9109e-08
8.26552e-06
1.11511e-07
8.26605e-06
1.18232e-07
8.26827e-06
1.24192e-07
8.27231e-06
1.31132e-07
1.35203e-07
8.27728e-06
8.7021e-06
4.63885e-08
8.70375e-06
-6.60485e-08
8.70446e-06
5.78364e-08
8.68851e-06
-1.368e-08
8.6893e-06
-5.93878e-08
8.69205e-06
3.60551e-08
8.68073e-06
1.37564e-08
8.68034e-06
1.49472e-08
8.68071e-06
6.36157e-08
8.6719e-06
6.09804e-08
8.66685e-06
5.92835e-08
8.66569e-06
7.88062e-08
8.66209e-06
8.57916e-08
8.65874e-06
8.82156e-08
8.65847e-06
9.93735e-08
8.65929e-06
1.10694e-07
8.66041e-06
1.17112e-07
8.66285e-06
1.21751e-07
8.66696e-06
1.27024e-07
1.30105e-07
8.67206e-06
9.11807e-06
4.59337e-08
9.11901e-06
-6.69829e-08
9.12186e-06
5.49892e-08
9.1051e-06
3.07106e-09
9.10276e-06
-5.70391e-08
9.10551e-06
3.33014e-08
9.09325e-06
2.60156e-08
9.09003e-06
1.81678e-08
9.09143e-06
6.22106e-08
9.08407e-06
6.83491e-08
9.0782e-06
6.51463e-08
9.07687e-06
8.01352e-08
9.0743e-06
8.83641e-08
9.07131e-06
9.12092e-08
9.07088e-06
9.97982e-08
9.07198e-06
1.09601e-07
9.07365e-06
1.15441e-07
9.07639e-06
1.19012e-07
9.08059e-06
1.22817e-07
1.24915e-07
9.08578e-06
9.55408e-06
4.53185e-08
9.55367e-06
-6.65815e-08
9.55874e-06
4.9922e-08
9.5418e-06
2.00119e-08
9.53614e-06
-5.13819e-08
9.5389e-06
3.05482e-08
9.52646e-06
3.84553e-08
9.52026e-06
2.43602e-08
9.52167e-06
6.08018e-08
9.51596e-06
7.40621e-08
9.50968e-06
7.14233e-08
9.50792e-06
8.19028e-08
9.50616e-06
9.01202e-08
9.50378e-06
9.35849e-08
9.50331e-06
1.0027e-07
9.50454e-06
1.08371e-07
9.50666e-06
1.13323e-07
9.50975e-06
1.15925e-07
9.5141e-06
1.18461e-07
1.19641e-07
9.51938e-06
1.0011e-05
4.44531e-08
1.00089e-05
-6.44731e-08
1.00158e-05
4.29836e-08
9.99951e-06
3.63283e-08
9.9903e-06
-4.21657e-08
9.99277e-06
2.80766e-08
9.98107e-06
5.01533e-08
9.97217e-06
3.32612e-08
9.97261e-06
6.03614e-08
9.96844e-06
7.82329e-08
9.96218e-06
7.76814e-08
9.95984e-06
8.42446e-08
9.95862e-06
9.13366e-08
9.95701e-06
9.51998e-08
9.95666e-06
1.00616e-07
9.95797e-06
1.07062e-07
9.96041e-06
1.10885e-07
9.96383e-06
1.125e-07
9.96839e-06
1.1391e-07
1.14259e-07
9.97377e-06
1.04898e-05
4.3295e-08
1.04859e-05
-6.05927e-08
1.04938e-05
3.51261e-08
1.04792e-05
5.08973e-08
1.04664e-05
-2.93903e-08
1.0468e-05
2.64739e-08
1.04577e-05
6.04738e-08
1.04467e-05
4.42843e-08
1.04455e-05
6.15039e-08
1.04425e-05
8.12752e-08
1.04366e-05
8.35695e-08
1.04337e-05
8.71712e-08
1.04327e-05
9.22963e-08
1.04319e-05
9.60403e-08
1.04318e-05
1.00663e-07
1.04333e-05
1.05641e-07
1.04359e-05
1.08233e-07
1.04396e-05
1.08798e-07
1.04444e-05
1.09144e-07
1.08734e-07
1.04499e-05
1.09915e-05
4.18337e-08
1.09861e-05
-5.51682e-08
1.09936e-05
2.76232e-08
1.09814e-05
6.30641e-08
1.09659e-05
-1.3942e-08
1.09657e-05
2.67259e-08
1.0957e-05
6.91836e-08
1.09447e-05
5.65743e-08
1.09417e-05
6.4489e-08
1.09393e-05
8.37154e-08
1.09339e-05
8.88912e-08
1.09306e-05
9.05556e-08
1.09296e-05
9.32805e-08
1.09294e-05
9.62144e-08
1.09298e-05
1.00256e-07
1.09314e-05
1.04034e-07
1.09342e-05
1.05415e-07
1.09381e-05
1.04889e-07
1.09431e-05
1.04176e-07
1.03042e-07
1.09488e-05
1.15171e-05
4.00965e-08
1.15099e-05
-4.79478e-08
1.15169e-05
2.06187e-08
1.15069e-05
7.3037e-08
1.14895e-05
3.47225e-09
1.14871e-05
2.91366e-08
1.14797e-05
7.653e-08
1.1467e-05
6.9276e-08
1.14622e-05
6.93548e-08
1.14599e-05
8.60014e-08
1.14552e-05
9.35901e-08
1.14515e-05
9.42101e-08
1.14503e-05
9.44785e-08
1.14506e-05
9.59648e-08
1.14516e-05
9.92828e-08
1.14534e-05
1.02143e-07
1.14564e-05
1.02431e-07
1.14605e-05
1.00829e-07
1.14656e-05
9.90516e-08
9.71804e-08
1.14715e-05
1.20678e-05
3.81606e-08
1.2059e-05
-3.91822e-08
1.20646e-05
1.50557e-08
1.20568e-05
8.07711e-08
1.20384e-05
2.18808e-08
1.20335e-05
3.40252e-08
1.20271e-05
8.2919e-08
1.20147e-05
8.17421e-08
1.2008e-05
7.59884e-08
1.20055e-05
8.84991e-08
1.20015e-05
9.76667e-08
1.19977e-05
9.79712e-08
1.19962e-05
9.59564e-08
1.19966e-05
9.55836e-08
1.19981e-05
9.77522e-08
1.20004e-05
9.98545e-08
1.20036e-05
9.92442e-08
1.20078e-05
9.66408e-08
1.2013e-05
9.38132e-08
9.11735e-08
1.2019e-05
1.26446e-05
3.61401e-08
1.26347e-05
-2.92235e-08
1.2638e-05
1.1692e-08
1.26322e-05
8.65988e-08
1.26135e-05
4.05584e-08
1.26062e-05
4.13206e-08
1.26005e-05
8.86483e-08
1.25886e-05
9.36411e-08
1.25804e-05
8.41299e-08
1.25774e-05
9.15662e-08
1.25739e-05
1.01157e-07
1.25702e-05
1.01669e-07
1.25684e-05
9.77246e-08
1.25687e-05
9.5258e-08
1.25707e-05
9.58488e-08
1.25734e-05
9.70749e-08
1.25769e-05
9.57869e-08
1.25812e-05
9.23207e-08
1.25865e-05
8.84923e-08
8.50556e-08
1.25926e-05
1.32489e-05
3.41722e-08
1.32382e-05
-1.85629e-08
1.32387e-05
1.1264e-08
1.32343e-05
9.09982e-08
1.32161e-05
5.87199e-08
1.32066e-05
5.08646e-08
1.3201e-05
9.42028e-08
1.319e-05
1.04692e-07
1.31806e-05
9.34398e-08
1.31767e-05
9.55265e-08
1.31736e-05
1.04232e-07
1.31702e-05
1.05115e-07
1.31681e-05
9.97528e-08
1.31683e-05
9.50665e-08
1.31704e-05
9.38044e-08
1.31736e-05
9.38239e-08
1.31774e-05
9.19691e-08
1.31819e-05
8.78352e-08
1.31873e-05
8.31008e-08
7.88491e-08
1.31935e-05
1.38819e-05
3.23897e-08
1.38708e-05
-7.36744e-09
1.38683e-05
1.37268e-08
1.38646e-05
9.46869e-08
1.38474e-05
7.59395e-08
1.3836e-05
6.2283e-08
1.38302e-05
9.99163e-08
1.382e-05
1.14978e-07
1.38099e-05
1.03504e-07
1.38048e-05
1.00605e-07
1.38019e-05
1.07195e-07
1.37988e-05
1.08195e-07
1.37966e-05
1.01929e-07
1.37966e-05
9.50848e-08
1.37986e-05
9.17389e-08
1.38022e-05
9.02416e-08
1.38065e-05
8.7724e-08
1.38112e-05
8.31298e-08
1.38167e-05
7.76303e-08
7.25276e-08
1.3823e-05
1.45451e-05
3.09068e-08
1.45336e-05
4.20463e-09
1.45285e-05
1.87974e-08
1.4525e-05
9.82368e-08
1.45088e-05
9.21403e-08
1.44959e-05
7.5153e-08
1.44895e-05
1.06264e-07
1.448e-05
1.24532e-07
1.44695e-05
1.14031e-07
1.44632e-05
1.06859e-07
1.446e-05
1.10399e-07
1.44572e-05
1.10987e-07
1.44551e-05
1.04067e-07
1.44548e-05
9.53738e-08
1.44568e-05
8.97353e-08
1.44606e-05
8.64703e-08
1.44652e-05
8.30514e-08
1.44702e-05
7.8135e-08
1.44757e-05
7.21061e-08
6.5979e-08
1.44823e-05
1.524e-05
2.98224e-08
1.52284e-05
1.57741e-08
1.52206e-05
2.66225e-08
1.5217e-05
1.01845e-07
1.52018e-05
1.07276e-07
1.51876e-05
8.93857e-08
1.51804e-05
1.13475e-07
1.51714e-05
1.33477e-07
1.51607e-05
1.248e-07
1.51533e-05
1.14241e-07
1.51495e-05
1.14179e-07
1.51468e-05
1.13694e-07
1.51448e-05
1.06101e-07
1.51443e-05
9.58659e-08
1.51461e-05
8.79393e-08
1.51499e-05
8.26286e-08
1.51549e-05
7.80377e-08
1.51603e-05
7.27234e-08
1.5166e-05
6.64117e-08
5.92209e-08
1.51728e-05
1.59679e-05
2.92161e-08
1.59563e-05
2.74027e-08
1.59465e-05
3.64381e-08
1.59422e-05
1.06137e-07
1.59281e-05
1.21427e-07
1.59128e-05
1.04611e-07
1.59044e-05
1.21913e-07
1.58958e-05
1.42031e-07
1.5885e-05
1.35645e-07
1.58765e-05
1.22686e-07
1.58719e-05
1.18809e-07
1.5869e-05
1.16571e-07
1.5867e-05
1.08145e-07
1.58664e-05
9.6427e-08
1.58679e-05
8.64529e-08
1.58717e-05
7.88921e-08
1.58768e-05
7.28786e-08
1.58827e-05
6.68823e-08
1.58891e-05
5.99407e-08
5.27738e-08
1.58956e-05
1.67307e-05
2.90952e-08
1.67192e-05
3.89569e-08
1.67077e-05
4.7865e-08
1.67024e-05
1.1147e-07
1.66892e-05
1.34613e-07
1.66732e-05
1.20673e-07
1.66633e-05
1.31804e-07
1.66547e-05
1.50554e-07
1.66439e-05
1.46484e-07
1.66345e-05
1.32114e-07
1.66288e-05
1.2453e-07
1.66254e-05
1.19903e-07
1.66232e-05
1.10386e-07
1.66225e-05
9.70986e-08
1.66237e-05
8.52448e-08
1.66271e-05
7.54707e-08
1.66323e-05
6.77502e-08
1.66386e-05
6.05711e-08
1.66457e-05
5.28434e-08
4.59551e-08
1.66525e-05
1.753e-05
2.94583e-08
1.7519e-05
4.99175e-08
1.75059e-05
6.09556e-08
1.74993e-05
1.18073e-07
1.7487e-05
1.46974e-07
1.74704e-05
1.37273e-07
1.74588e-05
1.43354e-07
1.74499e-05
1.595e-07
1.7439e-05
1.57339e-07
1.74287e-05
1.42462e-07
1.74217e-05
1.31525e-07
1.74175e-05
1.24037e-07
1.74149e-05
1.13036e-07
1.74139e-05
9.81224e-08
1.74148e-05
8.42936e-08
1.74178e-05
7.24797e-08
1.74229e-05
6.2706e-08
1.74295e-05
5.38892e-08
1.7437e-05
4.53864e-08
3.7929e-08
1.7445e-05
1.83675e-05
3.03024e-08
1.8357e-05
6.04184e-08
1.8343e-05
7.49774e-08
1.83349e-05
1.26163e-07
1.8323e-05
1.5889e-07
1.83063e-05
1.53913e-07
1.82931e-05
1.56588e-07
1.82831e-05
1.69458e-07
1.8272e-05
1.68433e-07
1.82608e-05
1.53718e-07
1.82524e-05
1.39958e-07
1.8247e-05
1.29349e-07
1.82437e-05
1.16415e-07
1.8242e-05
9.97939e-08
1.82425e-05
8.37656e-08
1.82451e-05
6.99359e-08
1.825e-05
5.77359e-08
1.8257e-05
4.69647e-08
1.82651e-05
3.72828e-08
2.89442e-08
1.82741e-05
1.92451e-05
3.16155e-08
1.92352e-05
7.03383e-08
1.92206e-05
8.95063e-08
1.9211e-05
1.35798e-07
1.91994e-05
1.70482e-07
1.91827e-05
1.70605e-07
1.91679e-05
1.71362e-07
1.91566e-05
1.80793e-07
1.91449e-05
1.80176e-07
1.91326e-05
1.6599e-07
1.91225e-05
1.50043e-07
1.91156e-05
1.36239e-07
1.91111e-05
1.20933e-07
1.91085e-05
1.0241e-07
1.91082e-05
8.40467e-08
1.91103e-05
6.78655e-08
1.91152e-05
5.28231e-08
1.91223e-05
3.98066e-08
1.91311e-05