/*--------------------------------*- C++ -*----------------------------------*\
| =========                 |                                                 |
| \\      /  F ield         | OpenFOAM: The Open Source CFD Toolbox           |
|  \\    /   O peration     | Version:  v2012                                 |
|   \\  /    A nd           | Website:  www.openfoam.com                      |
|    \\/     M anipulation  |                                                 |
\*---------------------------------------------------------------------------*/
FoamFile
{
    version     2.0;
    format      ascii;
    class       volVectorField;
    location    "1";
    object      U;
}
// * * * * * * * * * * * * * * * * * * * * * * * * * * * * * * * * * * * * * //

dimensions      [0 1 -1 0 0 0 0];


internalField   nonuniform List<vector> 
17600
(
(0.831859 0.00137626 0)
(1.16077 -0.00342265 0)
(0.841788 0.00296042 0)
(1.15015 -0.00455393 0)
(0.845882 0.004466 0)
(1.15042 0.000779906 0)
(0.850347 0.00120669 0)
(1.13747 0.00233538 0)
(0.859356 0.00177474 0)
(1.123 0.000459454 0)
(0.858779 0.00109091 0)
(1.11047 0.000309154 0)
(0.860088 0.00111637 0)
(1.10146 -0.000299762 0)
(0.85735 0.00083889 0)
(1.09596 -0.000674393 0)
(0.850533 0.00116484 0)
(1.09323 -0.000338816 0)
(0.837405 0.00278218 0)
(1.09102 0.000368128 0)
(0.842045 0.00133856 0)
(1.14839 -0.00330306 0)
(0.851768 0.00285289 0)
(1.13622 -0.00436829 0)
(0.856103 0.0042681 0)
(1.13392 0.000985638 0)
(0.865716 0.00112174 0)
(1.11857 0.00245113 0)
(0.880729 0.00170854 0)
(1.10019 0.000730996 0)
(0.886193 0.00103557 0)
(1.0816 0.00058652 0)
(0.896115 0.00106214 0)
(1.06326 -4.61021e-05 0)
(0.906251 0.000811352 0)
(1.04305 -0.000494644 0)
(0.919495 0.00140315 0)
(1.01653 -0.000405196 0)
(0.937685 0.0041633 0)
(0.976387 -0.000324306 0)
(0.861873 0.00132101 0)
(1.12607 -0.00318942 0)
(0.87213 0.0027514 0)
(1.11197 -0.00419961 0)
(0.877794 0.00407076 0)
(1.10489 0.00108805 0)
(0.894904 0.00108082 0)
(1.08552 0.00246871 0)
(0.91576 0.0017693 0)
(1.06457 0.000828969 0)
(0.926418 0.00114754 0)
(1.0423 0.000579552 0)
(0.94053 0.00124446 0)
(1.02149 -0.000138324 0)
(0.952824 0.00112807 0)
(1.00174 -0.00069274 0)
(0.963284 0.00188807 0)
(0.982923 -0.000693261 0)
(0.969001 0.00460028 0)
(0.966474 0.00053581 0)
(0.888553 0.00133948 0)
(1.09757 -0.00312099 0)
(0.899544 0.00270799 0)
(1.08248 -0.00409883 0)
(0.906605 0.00398904 0)
(1.07137 0.00103532 0)
(0.929159 0.00115866 0)
(1.05035 0.00233939 0)
(0.950437 0.00193264 0)
(1.03222 0.000759529 0)
(0.960225 0.00138172 0)
(1.01352 0.000430725 0)
(0.970308 0.00151987 0)
(0.999238 -0.000297663 0)
(0.975973 0.00144308 0)
(0.98843 -0.000835312 0)
(0.977697 0.00220701 0)
(0.980083 -0.000708506 0)
(0.974693 0.00482917 0)
(0.973103 0.0015343 0)
(0.917697 0.00138578 0)
(1.0682 -0.0030931 0)
(0.928417 0.00271158 0)
(1.05394 -0.00404712 0)
(0.935444 0.00399693 0)
(1.04176 0.000886499 0)
(0.9587 0.00130529 0)
(1.02361 0.0021611 0)
(0.975375 0.00209372 0)
(1.01253 0.00067003 0)
(0.980657 0.00159425 0)
(1.00078 0.000333865 0)
(0.984934 0.00171316 0)
(0.99349 -0.000355431 0)
(0.985359 0.0016226 0)
(0.988224 -0.000839424 0)
(0.983342 0.00239128 0)
(0.98313 -0.000570815 0)
(0.978828 0.00500127 0)
(0.97711 0.00251414 0)
(0.944676 0.00144586 0)
(1.04306 -0.00309102 0)
(0.953539 0.00273877 0)
(1.03137 -0.00401834 0)
(0.958682 0.00404118 0)
(1.02095 0.00070599 0)
(0.978654 0.00144498 0)
(1.00852 0.00201134 0)
(0.989555 0.00219246 0)
(1.00447 0.000621873 0)
(0.991008 0.00173451 0)
(0.998231 0.000302874 0)
(0.991998 0.00182191 0)
(0.994612 -0.000352177 0)
(0.990527 0.00173342 0)
(0.991191 -0.000788576 0)
(0.987752 0.00252045 0)
(0.986695 -0.000364048 0)
(0.983194 0.00513528 0)
(0.980971 0.00342352 0)
(0.966187 0.00150226 0)
(1.02502 -0.003097 0)
(0.972105 0.0027691 0)
(1.01671 -0.00398924 0)
(0.974376 0.00408577 0)
(1.0091 0.000541038 0)
(0.989611 0.00153823 0)
(1.0022 0.00190482 0)
(0.996465 0.00222734 0)
(1.00266 0.000599894 0)
(0.996254 0.00181807 0)
(0.99951 0.000296153 0)
(0.996325 0.00189051 0)
(0.997367 -0.000332084 0)
(0.994541 0.00181743 0)
(0.994557 -0.00071361 0)
(0.991726 0.00260832 0)
(0.990341 -8.94414e-05 0)
(0.987229 0.00519288 0)
(0.985019 0.00430143 0)
(0.981101 0.00154057 0)
(1.01405 -0.00309728 0)
(0.984033 0.00278945 0)
(1.00883 -0.00394639 0)
(0.983695 0.00411651 0)
(1.00356 0.000409203 0)
(0.994729 0.00158413 0)
(1.00031 0.00182409 0)
(0.999681 0.00222101 0)
(1.00294 0.000579799 0)
(0.999266 0.00186832 0)
(1.00144 0.000290011 0)
(0.99949 0.00193978 0)
(1.00003 -0.000307324 0)
(0.997852 0.00188028 0)
(0.997603 -0.00061212 0)
(0.995166 0.00265355 0)
(0.993682 0.000250311 0)
(0.990843 0.00518355 0)
(0.988769 0.00514355 0)
(0.990211 0.00155578 0)
(1.0082 -0.003087 0)
(0.990922 0.00279554 0)
(1.00521 -0.0038889 0)
(0.989 0.00413297 0)
(1.00146 0.000309606 0)
(0.997013 0.0015992 0)
(1.00004 0.00175207 0)
(1.00133 0.0021937 0)
(1.00353 0.000552492 0)
(1.0012 0.00189695 0)
(1.00303 0.000277806 0)
(1.00187 0.00197271 0)
(1.00216 -0.000277721 0)
(1.00049 0.00191898 0)
(1.0001 -0.00048051 0)
(0.998019 0.00265241 0)
(0.996509 0.000652945 0)
(0.993968 0.00513679 0)
(0.992038 0.00592442 0)
(0.995244 0.00155202 0)
(1.00519 -0.00306841 0)
(0.994696 0.00278922 0)
(1.00361 -0.00382308 0)
(0.992274 0.00413783 0)
(1.00094 0.000236345 0)
(0.998272 0.00159835 0)
(1.00026 0.00168275 0)
(1.00237 0.00215654 0)
(1.00397 0.000518512 0)
(1.00252 0.00190811 0)
(1.00417 0.000260638 0)
(1.00362 0.00198631 0)
(1.00375 -0.000238746 0)
(1.00251 0.00192762 0)
(1.00204 -0.000320943 0)
(1.00028 0.00261041 0)
(0.998791 0.00109589 0)
(0.996555 0.00507485 0)
(0.99479 0.00661286 0)
(0.99789 0.00153732 0)
(1.00346 -0.00304565 0)
(0.996792 0.00277407 0)
(1.00272 -0.00375573 0)
(0.994601 0.0041308 0)
(1.00106 0.000183764 0)
(0.999251 0.00158942 0)
(1.00063 0.00161663 0)
(1.00317 0.00211448 0)
(1.00429 0.000481713 0)
(1.00344 0.00190363 0)
(1.00493 0.000242666 0)
(1.00485 0.00197722 0)
(1.00487 -0.00018641 0)
(1.00396 0.0019023 0)
(1.00347 -0.00013616 0)
(1.00197 0.00253139 0)
(1.00055 0.00155531 0)
(0.998601 0.00502492 0)
(0.997019 0.00718652 0)
(0.999301 0.0015185 0)
(1.00229 -0.00302145 0)
(0.998017 0.00275288 0)
(1.00205 -0.00369084 0)
(0.996372 0.00410891 0)
(1.00141 0.000147393 0)
(1.00011 0.00157476 0)
(1.00107 0.00155561 0)
(1.00383 0.00206914 0)
(1.00453 0.000447229 0)
(1.00407 0.00188404 0)
(1.00543 0.000229254 0)
(1.00566 0.00194246 0)
(1.00561 -0.00011568 0)
(1.00494 0.00183807 0)
(1.00445 7.84631e-05 0)
(1.00317 0.00243187 0)
(1.00184 0.00200803 0)
(1.00014 0.00501431 0)
(0.998743 0.00763723 0)
(1.00009 0.00149915 0)
(1.00146 -0.00299666 0)
(0.998749 0.00272728 0)
(1.00152 -0.00362939 0)
(0.997676 0.00406989 0)
(1.00179 0.000123614 0)
(1.00083 0.00155428 0)
(1.00149 0.00150112 0)
(1.00434 0.00202032 0)
(1.00472 0.000419505 0)
(1.00447 0.00184919 0)
(1.00574 0.000226106 0)
(1.00616 0.00188056 0)
(1.00607 -2.48549e-05 0)
(1.00555 0.00173944 0)
(1.00509 0.000318703 0)
(1.00396 0.00233244 0)
(1.00272 0.00242904 0)
(1.00124 0.00505962 0)
(1.00002 0.00797359 0)
(1.00055 0.00148025 0)
(1.00092 -0.00297108 0)
(0.999173 0.00269817 0)
(1.00113 -0.00357031 0)
(0.998563 0.0040137 0)
(1.0021 0.000109982 0)
(1.00136 0.00152669 0)
(1.00184 0.00145455 0)
(1.00469 0.0019662 0)
(1.00486 0.000401888 0)
(1.00471 0.00179829 0)
(1.00593 0.000237546 0)
(1.00643 0.0017936 0)
(1.00633 8.22443e-05 0)
(1.00589 0.00162002 0)
(1.00547 0.000565265 0)
(1.00446 0.00225167 0)
(1.00331 0.00279804 0)
(1.00202 0.00516239 0)
(1.00095 0.00821642 0)
(1.00079 0.00146146 0)
(1.00061 -0.0029441 0)
(0.999399 0.00266584 0)
(1.0009 -0.00351136 0)
(0.999118 0.00394154 0)
(1.00231 0.000105543 0)
(1.00171 0.00149008 0)
(1.00209 0.00141748 0)
(1.00491 0.00190335 0)
(1.00496 0.000397328 0)
(1.00484 0.00173032 0)
(1.00603 0.000264867 0)
(1.00656 0.00168454 0)
(1.00646 0.000203975 0)
(1.00607 0.00148902 0)
(1.00568 0.000802703 0)
(1.00477 0.00220839 0)
(1.0037 0.00311287 0)
(1.00257 0.00531431 0)
(1.00163 0.008392 0)
(1.00091 0.00144215 0)
(1.00045 -0.00291506 0)
(0.999508 0.00263018 0)
(1.00078 -0.00345021 0)
(0.999446 0.00385489 0)
(1.00243 0.000109859 0)
(1.00193 0.001443 0)
(1.00225 0.00139086 0)
(1.00503 0.00182831 0)
(1.00501 0.000407914 0)
(1.0049 0.0016437 0)
(1.00607 0.000309586 0)
(1.00662 0.00155459 0)
(1.00651 0.000338137 0)
(1.00617 0.00136155 0)
(1.0058 0.00101875 0)
(1.00498 0.00220952 0)
(1.00398 0.00338268 0)
(1.00299 0.00549908 0)
(1.00216 0.00852411 0)
(1.00096 0.00142181 0)
(1.00038 -0.00288344 0)
(0.999553 0.00259083 0)
(1.00074 -0.00338491 0)
(0.99964 0.00375493 0)
(1.00249 0.000123261 0)
(1.00206 0.00138371 0)
(1.00235 0.00137624 0)
(1.00508 0.00173825 0)
(1.00504 0.00043364 0)
(1.00493 0.00153934 0)
(1.00609 0.000369606 0)
(1.00664 0.00140895 0)
(1.00653 0.000477285 0)
(1.00622 0.00125515 0)
(1.00587 0.00120336 0)
(1.00513 0.00225407 0)
(1.00421 0.00361763 0)
(1.00334 0.00569745 0)
(1.0026 0.00862876 0)
(1.00097 0.00140002 0)
(1.00037 -0.0028485 0)
(0.999568 0.00254682 0)
(1.00074 -0.00331347 0)
(0.999764 0.00364161 0)
(1.0025 0.00014856 0)
(1.00213 0.00130992 0)
(1.0024 0.00137564 0)
(1.00509 0.0016311 0)
(1.00505 0.000473177 0)
(1.00493 0.00142115 0)
(1.00609 0.000437839 0)
(1.00664 0.0012596 0)
(1.00653 0.000605879 0)
(1.00626 0.00117937 0)
(1.00593 0.00135309 0)
(1.00527 0.00233699 0)
(1.00442 0.0038275 0)
(1.00366 0.00589552 0)
(1.003 0.00871466 0)
(1.00096 0.00137645 0)
(1.00038 -0.0028092 0)
(0.999571 0.00249677 0)
(1.00076 -0.00323433 0)
(0.999855 0.00351443 0)
(1.00248 0.000184348 0)
(1.00219 0.0012197 0)
(1.00242 0.00138988 0)
(1.00508 0.00150636 0)
(1.00505 0.00052373 0)
(1.00493 0.00129104 0)
(1.00607 0.000509639 0)
(1.00664 0.00111901 0)
(1.00652 0.000706927 0)
(1.00629 0.00113445 0)
(1.00599 0.00147322 0)
(1.0054 0.00244882 0)
(1.00462 0.00402427 0)
(1.00396 0.00608817 0)
(1.00338 0.0087884 0)
(1.00094 0.00135082 0)
(1.00039 -0.00276458 0)
(0.999568 0.00243968 0)
(1.00079 -0.00314639 0)
(0.999934 0.00337161 0)
(1.00245 0.000232605 0)
(1.00223 0.0011107 0)
(1.00243 0.00142012 0)
(1.00506 0.00136443 0)
(1.00504 0.000583856 0)
(1.00492 0.00115222 0)
(1.00606 0.000575604 0)
(1.00664 0.000997364 0)
(1.00651 0.000772624 0)
(1.00631 0.00111583 0)
(1.00605 0.00157146 0)
(1.00553 0.0025722 0)
(1.00483 0.0042145 0)
(1.00426 0.00627406 0)
(1.00375 0.00885577 0)
(1.00091 0.00132284 0)
(1.00042 -0.00271367 0)
(0.999564 0.00237395 0)
(1.00082 -0.00304718 0)
(1.00001 0.00321047 0)
(1.00242 0.000297996 0)
(1.00226 0.000982273 0)
(1.00244 0.00146343 0)
(1.00503 0.00121133 0)
(1.00502 0.00065048 0)
(1.00491 0.00101194 0)
(1.00604 0.000623122 0)
(1.00663 0.000902994 0)
(1.0065 0.00080801 0)
(1.00634 0.00111894 0)
(1.00611 0.00165941 0)
(1.00568 0.00269202 0)
(1.00505 0.00439657 0)
(1.00456 0.00645442 0)
(1.00411 0.00892251 0)
(1.00088 0.00129233 0)
(1.00044 -0.00265505 0)
(0.99956 0.00229705 0)
(1.00086 -0.00293521 0)
(1.00009 0.0030315 0)
(1.00238 0.000377522 0)
(1.0023 0.000838541 0)
(1.00244 0.00151389 0)
(1.005 0.00105301 0)
(1.00501 0.000713423 0)
(1.00489 0.000886252 0)
(1.00602 0.000643694 0)
(1.00663 0.000834882 0)
(1.0065 0.000819106 0)
(1.00637 0.00113632 0)
(1.00619 0.00174648 0)
(1.00583 0.00280428 0)
(1.00528 0.00456224 0)
(1.00486 0.0066293 0)
(1.00446 0.00899258 0)
(1.00086 0.00125886 0)
(1.00046 -0.00258675 0)
(0.999556 0.00220695 0)
(1.00089 -0.00280997 0)
(1.00016 0.00283356 0)
(1.00234 0.000472455 0)
(1.00233 0.000677013 0)
(1.00245 0.00157499 0)
(1.00497 0.000890318 0)
(1.00499 0.000755907 0)
(1.00488 0.000787225 0)
(1.006 0.000629067 0)
(1.00662 0.000784513 0)
(1.0065 0.000810237 0)
(1.00641 0.00115897 0)
(1.00627 0.00183666 0)
(1.006 0.00291603 0)
(1.00553 0.00470489 0)
(1.00517 0.00679487 0)
(1.00482 0.0090679 0)
(1.00083 0.00122226 0)
(1.00049 -0.00250753 0)
(0.999552 0.00210277 0)
(1.00092 -0.00267018 0)
(1.00024 0.00261543 0)
(1.00229 0.000580223 0)
(1.00237 0.000501376 0)
(1.00245 0.00163775 0)
(1.00494 0.000733362 0)
(1.00498 0.000767346 0)
(1.00486 0.000714899 0)
(1.00599 0.000582545 0)
(1.00661 0.000749292 0)
(1.0065 0.000793961 0)
(1.00645 0.00117954 0)
(1.00636 0.00193326 0)
(1.00617 0.00303762 0)
(1.00579 0.00482779 0)
(1.0055 0.0069449 0)
(1.00517 0.00915116 0)
(1.0008 0.00118262 0)
(1.00051 -0.0024167 0)
(0.999548 0.00198237 0)
(1.00095 -0.0025164 0)
(1.00032 0.00238079 0)
(1.00225 0.000693088 0)
(1.0024 0.00032405 0)
(1.00245 0.00168687 0)
(1.0049 0.000592451 0)
(1.00497 0.000744558 0)
(1.00483 0.000664948 0)
(1.00597 0.000513204 0)
(1.0066 0.000722993 0)
(1.00651 0.000786393 0)
(1.00651 0.00119418 0)
(1.00647 0.0020374 0)
(1.00636 0.00317582 0)
(1.00607 0.00494135 0)
(1.00583 0.00707129 0)
(1.00553 0.00924101 0)
(1.00077 0.00113991 0)
(1.00053 -0.0023133 0)
(0.999545 0.00184492 0)
(1.00097 -0.00235053 0)
(1.00041 0.00213067 0)
(1.0022 0.000813578 0)
(1.00244 0.00015048 0)
(1.00245 0.00171627 0)
(1.00486 0.000479726 0)
(1.00496 0.000686127 0)
(1.0048 0.000641929 0)
(1.00596 0.000428097 0)
(1.0066 0.000690881 0)
(1.00652 0.000796486 0)
(1.00657 0.00120679 0)
(1.00658 0.00214685 0)
(1.00655 0.00333231 0)
(1.00635 0.00505608 0)
(1.00618 0.00716779 0)
(1.00589 0.00932664 0)
(1.00074 0.00109322 0)
(1.00055 -0.00219542 0)
(0.999542 0.00169224 0)
(1.001 -0.00217305 0)
(1.00049 0.00186795 0)
(1.00215 0.000935316 0)
(1.00247 -8.06681e-06 0)
(1.00246 0.00171969 0)
(1.00481 0.000398887 0)
(1.00495 0.000594624 0)
(1.00477 0.000640456 0)
(1.00594 0.000341914 0)
(1.0066 0.000647225 0)
(1.00653 0.000833155 0)
(1.00664 0.00123453 0)
(1.00672 0.00226362 0)
(1.00675 0.00350626 0)
(1.00665 0.00517916 0)
(1.00654 0.0072337 0)
(1.00627 0.00938835 0)
(1.00071 0.00104343 0)
(1.00057 -0.0020638 0)
(0.99954 0.00152442 0)
(1.00101 -0.00198845 0)
(1.00058 0.0016016 0)
(1.0021 0.00104311 0)
(1.00249 -0.0001478 0)
(1.00246 0.0016852 0)
(1.00475 0.000350146 0)
(1.00494 0.000479156 0)
(1.00474 0.000641254 0)
(1.00592 0.000267563 0)
(1.00661 0.000602367 0)
(1.00654 0.000902582 0)
(1.00671 0.00130043 0)
(1.00686 0.00239225 0)
(1.00696 0.00369453 0)
(1.00694 0.00531206 0)
(1.00691 0.00727318 0)
(1.00665 0.00940433 0)
(1.00068 0.000991142 0)
(1.00058 -0.00192114 0)
(0.999538 0.00134647 0)
(1.00103 -0.0018037 0)
(1.00067 0.00134143 0)
(1.00204 0.00112639 0)
(1.00252 -0.000259294 0)
(1.00246 0.00161368 0)
(1.00469 0.000329796 0)
(1.00494 0.000357031 0)
(1.00471 0.000642893 0)
(1.00589 0.000212976 0)
(1.00663 0.000571905 0)
(1.00657 0.0010091 0)
(1.0068 0.0014219 0)
(1.00703 0.00253481 0)
(1.00718 0.00389522 0)
(1.00723 0.00545889 0)
(1.00728 0.00730227 0)
(1.00705 0.00937152 0)
(1.00065 0.000936147 0)
(1.00059 -0.00176695 0)
(0.999535 0.00116178 0)
(1.00104 -0.00162642 0)
(1.00076 0.00109839 0)
(1.00199 0.001177 0)
(1.00253 -0.000338235 0)
(1.00247 0.00151375 0)
(1.00462 0.000325103 0)
(1.00493 0.00023252 0)
(1.00467 0.000647771 0)
(1.00586 0.000198907 0)
(1.00665 0.000567543 0)
(1.0066 0.00115512 0)
(1.00688 0.00159711 0)
(1.0072 0.00268043 0)
(1.00741 0.00409331 0)
(1.00752 0.00561568 0)
(1.00765 0.00733549 0)
(1.00745 0.0093015 0)
(1.00061 0.000879863 0)
(1.00059 -0.00160516 0)
(0.999532 0.000979713 0)
(1.00104 -0.00146566 0)
(1.00084 0.000881975 0)
(1.00194 0.00119484 0)
(1.00254 -0.000390864 0)
(1.00248 0.00138915 0)
(1.00454 0.00033112 0)
(1.00492 0.000110447 0)
(1.00464 0.000658589 0)
(1.00583 0.000240111 0)
(1.00669 0.000593299 0)
(1.00665 0.00132594 0)
(1.00697 0.00180153 0)
(1.00738 0.0028098 0)
(1.00764 0.00425593 0)
(1.0078 0.00576102 0)
(1.008 0.00737055 0)
(1.00786 0.00920342 0)
(1.00058 0.000822526 0)
(1.00059 -0.00144124 0)
(0.999525 0.000814371 0)
(1.00104 -0.00133356 0)
(1.00093 0.000692188 0)
(1.00188 0.00118235 0)
(1.00253 -0.000421219 0)
(1.00249 0.00126114 0)
(1.00445 0.00034189 0)
(1.00491 6.19218e-06 0)
(1.00462 0.000679613 0)
(1.00579 0.000335155 0)
(1.00673 0.000647297 0)
(1.00671 0.00150819 0)
(1.00705 0.00202152 0)
(1.00756 0.00293095 0)
(1.00789 0.00437076 0)
(1.00809 0.00588444 0)
(1.00835 0.00740589 0)
(1.00825 0.00909259 0)
(1.00055 0.000766793 0)
(1.00058 -0.00128168 0)
(0.999515 0.000671587 0)
(1.00104 -0.00123581 0)
(1.00101 0.000526365 0)
(1.00183 0.00114073 0)
(1.00252 -0.000442679 0)
(1.00249 0.00114249 0)
(1.00436 0.000353378 0)
(1.0049 -6.48547e-05 0)
(1.00461 0.000720909 0)
(1.00575 0.000481163 0)
(1.00678 0.000721762 0)
(1.00678 0.00168531 0)
(1.00713 0.00225251 0)
(1.00773 0.00305742 0)
(1.00815 0.00444375 0)
(1.00838 0.00597548 0)
(1.00868 0.00743241 0)
(1.00863 0.00897719 0)
(1.00051 0.000713996 0)
(1.00057 -0.00113062 0)
(0.999501 0.000558369 0)
(1.00103 -0.00117048 0)
(1.00108 0.000386337 0)
(1.00177 0.00107944 0)
(1.00251 -0.000460669 0)
(1.0025 0.00103084 0)
(1.00427 0.000380722 0)
(1.00489 -0.000104996 0)
(1.0046 0.000779084 0)
(1.00571 0.000660453 0)
(1.00683 0.000808147 0)
(1.00687 0.00183158 0)
(1.00721 0.00248417 0)
(1.00789 0.00319205 0)
(1.00841 0.00448606 0)
(1.00868 0.00602257 0)
(1.009 0.00743716 0)
(1.00899 0.00885705 0)
(1.00048 0.000663803 0)
(1.00055 -0.000994188 0)
(0.99948 0.000485051 0)
(1.00102 -0.00113838 0)
(1.00115 0.000258364 0)
(1.00172 0.00101429 0)
(1.00248 -0.000478603 0)
(1.0025 0.00092505 0)
(1.00417 0.000439054 0)
(1.00487 -0.000117682 0)
(1.00461 0.000848386 0)
(1.00567 0.000862129 0)
(1.00688 0.000909872 0)
(1.00697 0.00193373 0)
(1.00729 0.00269949 0)
(1.00804 0.00333628 0)
(1.00868 0.0045108 0)
(1.00899 0.00602549 0)
(1.00932 0.00741348 0)
(1.00933 0.00873099 0)
(1.00044 0.000619068 0)
(1.00053 -0.000879947 0)
(0.999453 0.000456455 0)
(1.001 -0.00112599 0)
(1.00122 0.000124951 0)
(1.00166 0.000954883 0)
(1.00245 -0.000496797 0)
(1.00251 0.000820207 0)
(1.00407 0.000525186 0)
(1.00486 -9.21994e-05 0)
(1.00463 0.000918173 0)
(1.00563 0.00107528 0)
(1.00691 0.0010318 0)
(1.00708 0.00199808 0)
(1.00738 0.00288161 0)
(1.00818 0.00348861 0)
(1.00893 0.00453101 0)
(1.0093 0.00599021 0)
(1.00964 0.00735622 0)
(1.00965 0.00859291 0)
(1.00041 0.000579774 0)
(1.0005 -0.000786072 0)
(0.99942 0.000462108 0)
(1.00097 -0.00111516 0)
(1.00128 -2.23574e-05 0)
(1.0016 0.000902601 0)
(1.00242 -0.000505231 0)
(1.00253 0.000720242 0)
(1.00397 0.000637402 0)
(1.00483 -2.37197e-05 0)
(1.00466 0.000966797 0)
(1.00558 0.00128382 0)
(1.00693 0.00117644 0)
(1.0072 0.00204126 0)
(1.00748 0.00301913 0)
(1.0083 0.00364184 0)
(1.00917 0.00455738 0)
(1.00961 0.00592709 0)
(1.00995 0.00726353 0)
(1.00995 0.00843631 0)
(1.00037 0.000546586 0)
(1.00048 -0.000717173 0)
(0.999382 0.000493734 0)
(1.00093 -0.00109031 0)
(1.00135 -0.000178946 0)
(1.00154 0.000853487 0)
(1.00237 -0.000501507 0)
(1.00255 0.00062606 0)
(1.00388 0.000771458 0)
(1.0048 7.85416e-05 0)
(1.00471 0.00099225 0)
(1.00554 0.00148085 0)
(1.00694 0.00134648 0)
(1.00732 0.0020805 0)
(1.0076 0.00310836 0)
(1.00842 0.00378272 0)
(1.00939 0.00459386 0)
(1.00992 0.00584805 0)
(1.01027 0.0071384 0)
(1.01025 0.00825726 0)
(1.00034 0.000520365 0)
(1.00046 -0.000676752 0)
(0.999341 0.000540623 0)
(1.00088 -0.00102907 0)
(1.00141 -0.000338257 0)
(1.00149 0.00080933 0)
(1.00232 -0.000476519 0)
(1.00258 0.000532892 0)
(1.00379 0.000913222 0)
(1.00476 0.000210449 0)
(1.00476 0.00100272 0)
(1.00552 0.00165262 0)
(1.00693 0.0015368 0)
(1.00744 0.00213005 0)
(1.00773 0.00316007 0)
(1.00854 0.00390153 0)
(1.0096 0.00463983 0)
(1.01022 0.00576538 0)
(1.01058 0.00698896 0)
(1.01054 0.00805609 0)
(1.0003 0.00050165 0)
(1.00045 -0.000664093 0)
(0.999302 0.000594782 0)
(1.00081 -0.000931811 0)
(1.00147 -0.000492806 0)
(1.00145 0.00076955 0)
(1.00227 -0.000417213 0)
(1.00262 0.00044071 0)
(1.00372 0.00104678 0)
(1.00471 0.000384691 0)
(1.00482 0.00101666 0)
(1.00551 0.00178601 0)
(1.00691 0.00173785 0)
(1.00754 0.00219816 0)
(1.00788 0.00318849 0)
(1.00867 0.00399054 0)
(1.00978 0.00468617 0)
(1.0105 0.00568479 0)
(1.01089 0.00682313 0)
(1.01082 0.00783575 0)
(1.00027 0.000488197 0)
(1.00043 -0.00067041 0)
(0.999267 0.000649886 0)
(1.00073 -0.000804355 0)
(1.00153 -0.000626081 0)
(1.00142 0.000722562 0)
(1.00221 -0.000327956 0)
(1.00267 0.000352244 0)
(1.00367 0.00115603 0)
(1.00465 0.000595401 0)
(1.00487 0.00104942 0)
(1.00552 0.00187718 0)
(1.00689 0.00193552 0)
(1.00763 0.00228846 0)
(1.00804 0.00320589 0)
(1.00881 0.00404781 0)
(1.00996 0.00472322 0)
(1.01076 0.0056082 0)
(1.01119 0.00664908 0)
(1.01109 0.00760146 0)
(1.00023 0.000479055 0)
(1.00043 -0.000685413 0)
(0.99924 0.000691934 0)
(1.00065 -0.000645684 0)
(1.00158 -0.000734972 0)
(1.0014 0.00067377 0)
(1.00214 -0.000206297 0)
(1.00272 0.000281958 0)
(1.00363 0.00122649 0)
(1.00458 0.00082287 0)
(1.00492 0.00110923 0)
(1.00555 0.00193354 0)
(1.00688 0.00211439 0)
(1.00771 0.00239907 0)
(1.00819 0.00322169 0)
(1.00896 0.00407517 0)
(1.01013 0.00474368 0)
(1.01101 0.00553396 0)
(1.01147 0.00647353 0)
(1.01136 0.00735885 0)
(1.0002 0.000472865 0)
(1.00042 -0.000706205 0)
(0.999224 0.0007142 0)
(1.00055 -0.000461174 0)
(1.00163 -0.000811689 0)
(1.0014 0.000628588 0)
(1.00207 -5.05641e-05 0)
(1.00277 0.00023885 0)
(1.00363 0.00124997 0)
(1.00451 0.00104313 0)
(1.00495 0.00119693 0)
(1.00559 0.00196478 0)
(1.00687 0.00226076 0)
(1.00778 0.00251986 0)
(1.00835 0.00323953 0)
(1.00911 0.00407318 0)
(1.01029 0.00473987 0)
(1.01123 0.00545624 0)
(1.01174 0.00629947 0)
(1.01161 0.00711296 0)
(1.00017 0.000468553 0)
(1.00043 -0.000725516 0)
(0.999222 0.000713868 0)
(1.00045 -0.000261216 0)
(1.00167 -0.000846441 0)
(1.00141 0.000580964 0)
(1.002 0.000135878 0)
(1.00282 0.00023072 0)
(1.00364 0.00123529 0)
(1.00445 0.00123923 0)
(1.00497 0.00131028 0)
(1.00564 0.00198377 0)
(1.00687 0.00236987 0)
(1.00783 0.00263911 0)
(1.00849 0.00326066 0)
(1.00927 0.00404319 0)
(1.01045 0.0047027 0)
(1.01144 0.00536364 0)
(1.01199 0.00612167 0)
(1.01186 0.00686338 0)
(1.00014 0.000466306 0)
(1.00043 -0.000741186 0)
(0.999235 0.000688727 0)
(1.00034 -5.92886e-05 0)
(1.00169 -0.000837953 0)
(1.00145 0.00053213 0)
(1.00194 0.000346674 0)
(1.00285 0.000268764 0)
(1.00368 0.00120162 0)
(1.0044 0.00140342 0)
(1.00498 0.00144565 0)
(1.00569 0.00200555 0)
(1.00689 0.002445 0)
(1.00788 0.00274613 0)
(1.00862 0.00328631 0)
(1.00944 0.00399402 0)
(1.01061 0.00463031 0)
(1.01163 0.00524716 0)
(1.01222 0.00593328 0)
(1.01208 0.00660887 0)
(1.00011 0.000462753 0)
(1.00044 -0.000748075 0)
(0.999265 0.000634302 0)
(1.00024 0.000157086 0)
(1.00171 -0.000783641 0)
(1.00151 0.00047906 0)
(1.00188 0.000563326 0)
(1.00287 0.000362765 0)
(1.00373 0.00116519 0)
(1.00438 0.00152878 0)
(1.00498 0.00158987 0)
(1.00574 0.00203673 0)
(1.00693 0.00249086 0)
(1.00794 0.00283214 0)
(1.00874 0.003318 0)
(1.00959 0.00394377 0)
(1.01077 0.0045357 0)
(1.01182 0.0051073 0)
(1.01244 0.00572985 0)
(1.0123 0.00634579 0)
(1.00008 0.00045515 0)
(1.00045 -0.000731094 0)
(0.999315 0.000547813 0)
(1.00014 0.000381021 0)
(1.00171 -0.000671998 0)
(1.00158 0.000429176 0)
(1.00184 0.000768193 0)
(1.00287 0.000517019 0)
(1.00379 0.00114812 0)
(1.00438 0.00162186 0)
(1.00498 0.00173559 0)
(1.00579 0.00208358 0)
(1.00698 0.00251536 0)
(1.008 0.00289075 0)
(1.00885 0.00334946 0)
(1.00973 0.00390243 0)
(1.01093 0.0044342 0)
(1.012 0.00495001 0)
(1.01265 0.00550958 0)
(1.01251 0.0060694 0)
(1.00006 0.000444266 0)
(1.00045 -0.000694767 0)
(0.999381 0.000450125 0)
(1.00005 0.0005844 0)
(1.0017 -0.000506495 0)
(1.00167 0.000394739 0)
(1.00182 0.000949406 0)
(1.00285 0.000716902 0)
(1.00385 0.00116389 0)
(1.00439 0.00169146 0)
(1.00498 0.00187715 0)
(1.00582 0.00215047 0)
(1.00703 0.00253083 0)
(1.00807 0.00292277 0)
(1.00895 0.00337225 0)
(1.00986 0.00386907 0)
(1.01107 0.00433614 0)
(1.01216 0.00478546 0)
(1.01285 0.00527689 0)
(1.0127 0.00578006 0)
(1.00003 0.000431728 0)
(1.00045 -0.000644381 0)
(0.999464 0.000356014 0)
(0.999988 0.000757244 0)
(1.00167 -0.0003028 0)
(1.00177 0.000381669 0)
(1.00182 0.00110483 0)
(1.00283 0.000942853 0)
(1.0039 0.00121844 0)
(1.00443 0.00174658 0)
(1.00498 0.00200546 0)
(1.00584 0.00223176 0)
(1.00709 0.00254474 0)
(1.00815 0.00292872 0)
(1.00906 0.00337525 0)
(1.00998 0.00383285 0)
(1.01119 0.00424046 0)
(1.01231 0.00461962 0)
(1.01302 0.00503689 0)
(1.01289 0.00547965 0)
(1.00002 0.000415846 0)
(1.00045 -0.0005719 0)
(0.99956 0.000263887 0)
(0.999943 0.000899147 0)
(1.00162 -6.92865e-05 0)
(1.00187 0.000395458 0)
(1.00186 0.00123366 0)
(1.0028 0.0011795 0)
(1.00394 0.00131528 0)
(1.00447 0.00180271 0)
(1.00499 0.00212118 0)
(1.00586 0.00232313 0)
(1.00713 0.00256445 0)
(1.00823 0.00291188 0)
(1.00917 0.00334948 0)
(1.01009 0.00378162 0)
(1.01129 0.00414071 0)
(1.01243 0.00445382 0)
(1.01318 0.00479435 0)
(1.01305 0.0051718 0)
(1 0.000396813 0)
(1.00044 -0.000478534 0)
(0.999666 0.000186968 0)
(0.999922 0.00100801 0)
(1.00157 0.000189095 0)
(1.00196 0.000447971 0)
(1.00191 0.00133392 0)
(1.00277 0.00141326 0)
(1.00396 0.00144834 0)
(1.00453 0.00186904 0)
(1.00502 0.00223033 0)
(1.00587 0.00242283 0)
(1.00716 0.00259763 0)
(1.00831 0.00288255 0)
(1.00928 0.00329439 0)
(1.01019 0.0037087 0)
(1.01138 0.00403273 0)
(1.01252 0.0042892 0)
(1.0133 0.00455532 0)
(1.0132 0.00486345 0)
(0.999989 0.000375316 0)
(1.00043 -0.000369261 0)
(0.999776 0.000136161 0)
(0.999927 0.00108278 0)
(1.00152 0.000455891 0)
(1.00205 0.000549742 0)
(1.00199 0.00141537 0)
(1.00275 0.0016317 0)
(1.00396 0.0016096 0)
(1.00458 0.00194494 0)
(1.00505 0.00233331 0)
(1.00586 0.00252715 0)
(1.00718 0.00264394 0)
(1.00838 0.00285049 0)
(1.00939 0.00321165 0)
(1.01029 0.00360465 0)
(1.01146 0.003905 0)
(1.01259 0.00411721 0)
(1.01339 0.00431643 0)
(1.01332 0.00455493 0)
(0.99998 0.000354725 0)
(1.00041 -0.000253414 0)
(0.999885 0.00011457 0)
(0.999955 0.00114021 0)
(1.00146 0.000715908 0)
(1.00212 0.000691445 0)
(1.00208 0.00149813 0)
(1.00274 0.00182523 0)
(1.00395 0.00178916 0)
(1.00463 0.00203189 0)
(1.00508 0.00242535 0)
(1.00586 0.00263488 0)
(1.00717 0.00270396 0)
(1.00842 0.00282819 0)
(1.00948 0.00311297 0)
(1.0104 0.00346787 0)
(1.01152 0.00374713 0)
(1.01263 0.00392639 0)
(1.01345 0.0040697 0)
(1.0134 0.00424255 0)
(0.999974 0.000335721 0)
(1.00039 -0.000134447 0)
(0.999991 0.000126944 0)
(1.00001 0.0011873 0)
(1.00141 0.000968648 0)
(1.00217 0.000861144 0)
(1.00218 0.00159529 0)
(1.00275 0.00200402 0)
(1.00393 0.001976 0)
(1.00467 0.00213453 0)
(1.00513 0.00250403 0)
(1.00585 0.00273876 0)
(1.00714 0.00277917 0)
(1.00843 0.00282436 0)
(1.00956 0.00301746 0)
(1.01049 0.00331075 0)
(1.01158 0.00355986 0)
(1.01266 0.00371089 0)
(1.01348 0.00380892 0)
(1.01345 0.00392236 0)
(0.99997 0.000318636 0)
(1.00036 -1.17725e-05 0)
(1.00009 0.000175126 0)
(1.00008 0.00122403 0)
(1.00137 0.00120337 0)
(1.00221 0.00105804 0)
(1.00228 0.00170525 0)
(1.00276 0.00218072 0)
(1.0039 0.00217077 0)
(1.00469 0.00225257 0)
(1.00517 0.00257705 0)
(1.00584 0.0028283 0)
(1.00709 0.00286522 0)
(1.00841 0.00284212 0)
(1.00959 0.00293985 0)
(1.01055 0.00315103 0)
(1.01163 0.00335227 0)
(1.01267 0.00346923 0)
(1.01348 0.00352619 0)
(1.01347 0.00358527 0)
(0.999968 0.000305984 0)
(1.00034 0.00011263 0)
(1.00018 0.000254164 0)
(1.00016 0.00126561 0)
(1.00133 0.00141398 0)
(1.00223 0.00127741 0)
(1.00238 0.00182699 0)
(1.00278 0.00235098 0)
(1.00386 0.0023801 0)
(1.00469 0.00239305 0)
(1.00521 0.00265415 0)
(1.00584 0.00290357 0)
(1.00703 0.00294626 0)
(1.00835 0.00287672 0)
(1.00959 0.00288059 0)
(1.01058 0.00300039 0)
(1.01164 0.00313374 0)
(1.01265 0.00320563 0)
(1.01344 0.00321574 0)
(1.01344 0.00322271 0)
(0.999968 0.000296632 0)
(1.00031 0.000240715 0)
(1.00026 0.000363078 0)
(1.00025 0.00132095 0)
(1.00131 0.0016116 0)
(1.00224 0.00150794 0)
(1.00247 0.00196802 0)
(1.00281 0.00251267 0)
(1.00381 0.00260119 0)
(1.00467 0.00256568 0)
(1.00523 0.00274597 0)
(1.00583 0.00297141 0)
(1.00695 0.00301369 0)
(1.00826 0.00291468 0)
(1.00953 0.00283639 0)
(1.01056 0.00286033 0)
(1.01162 0.00291386 0)
(1.0126 0.00292727 0)
(1.01337 0.00288515 0)
(1.01337 0.00283729 0)
(0.99997 0.000291379 0)
(1.00028 0.000369227 0)
(1.00033 0.000496936 0)
(1.00035 0.00138716 0)
(1.0013 0.00179964 0)
(1.00224 0.0017453 0)
(1.00255 0.0021308 0)
(1.00285 0.00267289 0)
(1.00375 0.00282645 0)
(1.00462 0.00277042 0)
(1.00523 0.00286715 0)
(1.00581 0.00304442 0)
(1.00686 0.00307536 0)
(1.00813 0.00294981 0)
(1.00942 0.00280383 0)
(1.01049 0.00273074 0)
(1.01155 0.00269834 0)
(1.01249 0.00264219 0)
(1.01324 0.00254572 0)
(1.01325 0.00244046 0)
(0.999972 0.000292746 0)
(1.00025 0.000489129 0)
(1.00039 0.000644942 0)
(1.00045 0.00146737 0)
(1.0013 0.0019764 0)
(1.00223 0.00199093 0)
(1.00261 0.00231248 0)
(1.00289 0.00283871 0)
(1.0037 0.0030492 0)
(1.00455 0.00300143 0)
(1.0052 0.00302635 0)
(1.00577 0.00313866 0)
(1.00675 0.00314129 0)
(1.00797 0.0029855 0)
(1.00926 0.00277665 0)
(1.01035 0.00261081 0)
(1.01141 0.00248626 0)
(1.01234 0.00235398 0)
(1.01306 0.00219707 0)
(1.01307 0.00203392 0)
(0.999976 0.000299363 0)
(1.00023 0.000602131 0)
(1.00043 0.000804012 0)
(1.00054 0.00156437 0)
(1.00131 0.00214554 0)
(1.00222 0.00224516 0)
(1.00266 0.00251688 0)
(1.00294 0.00301503 0)
(1.00365 0.00327194 0)
(1.00445 0.00324991 0)
(1.00513 0.00322502 0)
(1.00569 0.00326478 0)
(1.00662 0.0032221 0)
(1.00777 0.00302694 0)
(1.00904 0.0027565 0)
(1.01014 0.00249898 0)
(1.01121 0.00227921 0)
(1.01211 0.00206163 0)
(1.01282 0.00183497 0)
(1.01283 0.00160744 0)
(0.999979 0.000308657 0)
(1.00021 0.00071213 0)
(1.00047 0.000972258 0)
(1.00063 0.00167936 0)
(1.00134 0.00231006 0)
(1.00219 0.00249852 0)
(1.0027 0.00275278 0)
(1.00297 0.00320592 0)
(1.00361 0.00350322 0)
(1.00435 0.00351514 0)
(1.00502 0.00346235 0)
(1.00558 0.00343307 0)
(1.00644 0.0033312 0)
(1.00752 0.0030851 0)
(1.00876 0.00274738 0)
(1.00985 0.002398 0)
(1.01092 0.00207507 0)
(1.01181 0.00176174 0)
(1.0125 0.0014493 0)
(1.01251 0.00114608 0)
(0.999983 0.000325096 0)
(1.00019 0.000814389 0)
(1.00049 0.00114301 0)
(1.00071 0.00181195 0)
(1.00136 0.00247444 0)
(1.00217 0.00274724 0)
(1.00271 0.00301246 0)
(1.003 0.00342676 0)
(1.00357 0.00374547 0)
(1.00423 0.00380424 0)
(1.00488 0.00374166 0)
(1.00542 0.00365563 0)
(1.00622 0.00348941 0)
(1.00722 0.00317988 0)
(1.0084 0.00276266 0)
(1.00947 0.00231368 0)
(1.01053 0.00187564 0)
(1.0114 0.00144926 0)
(1.01207 0.00103107 0)
(1.01208 0.000635586 0)
(0.999986 0.000341455 0)
(1.00018 0.00091406 0)
(1.00051 0.00131585 0)
(1.00078 0.00195866 0)
(1.0014 0.00264037 0)
(1.00215 0.00299322 0)