/*--------------------------------*- C++ -*----------------------------------*\
| =========                 |                                                 |
| \\      /  F ield         | OpenFOAM: The Open Source CFD Toolbox           |
|  \\    /   O peration     | Version:  v2012                                 |
|   \\  /    A nd           | Website:  www.openfoam.com                      |
|    \\/     M anipulation  |                                                 |
\*---------------------------------------------------------------------------*/
FoamFile
{
    version     2.0;
    format      ascii;
    class       volScalarField;
    location    "2.3";
    object      p;
}
// * * * * * * * * * * * * * * * * * * * * * * * * * * * * * * * * * * * * * //

dimensions      [0 2 -2 0 0 0 0];


internalField   nonuniform List<scalar> 
17600
(
3.42283e-11
-0.000431825
-0.00126287
-0.00119162
-0.00133253
-0.00201263
-0.00232869
-0.00268325
-0.00312039
-0.00369895
-0.00356584
-0.00408769
-0.00389997
-0.00444004
-0.00401056
-0.0037573
-0.00290263
-0.0014238
0.000652425
0.00469898
1.78761e-06
-0.000431619
-0.00126295
-0.001194
-0.00133244
-0.00201438
-0.00232824
-0.00268527
-0.00311959
-0.00370219
-0.00356432
-0.00409329
-0.00389715
-0.00444931
-0.00400581
-0.00377473
-0.00289269
-0.0014697
0.000667984
0.00438105
4.55134e-06
-0.000431635
-0.00126386
-0.00119758
-0.00133186
-0.00201685
-0.00232769
-0.00268844
-0.00311889
-0.00370766
-0.00356337
-0.00410235
-0.00389469
-0.00446333
-0.00400053
-0.00379813
-0.00288241
-0.00152523
0.000667529
0.0039426
8.01174e-06
-0.000431356
-0.00126589
-0.00120135
-0.00133099
-0.0020194
-0.00232741
-0.002692
-0.00311892
-0.00371437
-0.0035639
-0.0041128
-0.00389402
-0.0044777
-0.00399738
-0.0038201
-0.00287641
-0.00157822
0.000637847
0.00352056
1.25712e-05
-0.00043072
-0.00126922
-0.00120533
-0.00132993
-0.00202211
-0.00232735
-0.00269594
-0.00311943
-0.00372206
-0.00356483
-0.00412406
-0.0038933
-0.0044921
-0.0039944
-0.00384132
-0.0028735
-0.00163109
0.000576647
0.00312443
1.84143e-05
-0.000430045
-0.00127387
-0.0012096
-0.00132866
-0.00202501
-0.00232732
-0.00270021
-0.00312
-0.00373043
-0.00356543
-0.00413568
-0.00389194
-0.00450659
-0.00399128
-0.0038627
-0.00287449
-0.00168589
0.000483753
0.00275315
2.53772e-05
-0.000429607
-0.00127959
-0.00121416
-0.00132716
-0.00202805
-0.00232719
-0.00270473
-0.00312044
-0.00373927
-0.0035657
-0.0041474
-0.00389066
-0.00452085
-0.00398963
-0.00388384
-0.00288182
-0.00174301
0.000360046
0.00240117
3.31731e-05
-0.000429508
-0.00128604
-0.00121899
-0.00132541
-0.00203122
-0.00232685
-0.00270947
-0.00312077
-0.0037486
-0.00356582
-0.00415923
-0.00389016
-0.00453458
-0.00399114
-0.00390353
-0.00289833
-0.00180211
0.000207088
0.00206183
4.15761e-05
-0.000429732
-0.00129289
-0.0012241
-0.00132339
-0.0020345
-0.00232631
-0.00271447
-0.00312105
-0.00375846
-0.003566
-0.00417115
-0.00389082
-0.00454753
-0.00399687
-0.00392086
-0.00292633
-0.00186253
2.71373e-05
0.00172788
5.04705e-05
-0.000430218
-0.00129996
-0.00122953
-0.00132111
-0.00203791
-0.0023256
-0.00271975
-0.00312139
-0.00376881
-0.00356641
-0.00418297
-0.00389309
-0.00455925
-0.0040076
-0.00393549
-0.00296731
-0.00192454
-0.000176583
0.00139275
5.98232e-05
-0.000430914
-0.00130712
-0.00123529
-0.00131861
-0.00204146
-0.00232476
-0.0027253
-0.00312187
-0.00377954
-0.00356729
-0.00419435
-0.00389751
-0.00456906
-0.00402437
-0.00394722
-0.00302201
-0.00199041
-0.000399466
0.00105183
6.96408e-05
-0.000431785
-0.00131432
-0.0012414
-0.0013159
-0.00204515
-0.00232383
-0.00273107
-0.00312261
-0.00379046
-0.00356889
-0.00420486
-0.00390476
-0.00457627
-0.00404818
-0.00395619
-0.00309043
-0.00206367
-0.000635874
0.000702609
7.9941e-05
-0.000432812
-0.00132153
-0.00124784
-0.00131301
-0.00204895
-0.00232286
-0.00273701
-0.00312374
-0.00380133
-0.00357158
-0.004214
-0.00391555
-0.00458042
-0.00407932
-0.00396316
-0.00317204
-0.00214839
-0.000880304
0.000344237
9.0739e-05
-0.000433983
-0.00132871
-0.00125462
-0.00130998
-0.00205282
-0.00232191
-0.00274304
-0.0031254
-0.00381188
-0.00357572
-0.00422128
-0.00393051
-0.00458141
-0.00411793
-0.00396554
-0.00326513
-0.00224867
-0.00112857
-2.25632e-05
0.000102042
-0.000435281
-0.00133582
-0.00126172
-0.00130683
-0.00205673
-0.00232105
-0.00274905
-0.0031278
-0.00382182
-0.00358172
-0.00422631
-0.00395004
-0.00457943
-0.00416437
-0.0039742
-0.00336665
-0.00236764
-0.00137825
-0.000395582
0.000113846
-0.00043668
-0.00134285
-0.00126911
-0.00130361
-0.0020606
-0.00232038
-0.00275486
-0.00313119
-0.0038308
-0.00359001
-0.00422871
-0.0039745
-0.00457492
-0.00421814
-0.00398815
-0.00347386
-0.00250721
-0.00162865
-0.00077162
0.000126137
-0.000438134
-0.00134976
-0.00127677
-0.00130038
-0.00206434
-0.00232008
-0.00276028
-0.00313582
-0.00383853
-0.00360095
-0.0042283
-0.00400398
-0.00456875
-0.00427784
-0.00401064
-0.00358525
-0.00266808
-0.00188067
-0.00114733
0.000138887
-0.000439577
-0.00135655
-0.00128464
-0.00129723
-0.00206783
-0.00232032
-0.00276511
-0.00314191
-0.00384474
-0.00361477
-0.00422516
-0.00403817
-0.00456238
-0.00434206
-0.00404429
-0.00370008
-0.00284961
-0.00213661
-0.00151983
0.000152053
-0.000440918
-0.00136319
-0.00129263
-0.00129427
-0.00207091
-0.00232131
-0.00276915
-0.00314971
-0.00384926
-0.0036315
-0.00421975
-0.00407627
-0.00455769
-0.00440955
-0.00409101
-0.00381835
-0.00304994
-0.00239916
-0.00188698
0.000165573
-0.000442043
-0.00136971
-0.00130064
-0.00129165
-0.00207341
-0.00232324
-0.0027722
-0.00315941
-0.00385202
-0.00365099
-0.00421278
-0.00411724
-0.00455654
-0.00447946
-0.00415224
-0.00394114
-0.00326657
-0.00267048
-0.00224754
0.000179368
-0.00044279
-0.00137612
-0.00130855
-0.00128955
-0.00207516
-0.00232634
-0.00277406
-0.00317106
-0.00385321
-0.00367279
-0.00420516
-0.00416014
-0.00456031
-0.00455126
-0.00422899
-0.00407058
-0.00349732
-0.002952
-0.00260131
0.000193331
-0.000442945
-0.00138247
-0.0013162
-0.00128813
-0.00207599
-0.00233079
-0.00277469
-0.00318444
-0.00385332
-0.00369622
-0.00419775
-0.00420429
-0.00456965
-0.0046249
-0.0043218
-0.00420935
-0.00374087
-0.00324459
-0.002949
0.000207308
-0.000442246
-0.00138883
-0.00132342
-0.00128757
-0.00207577
-0.00233671
-0.00277424
-0.0031992
-0.00385281
-0.0037206
-0.00419137
-0.00424897
-0.00458518
-0.00470053
-0.00443085
-0.0043601
-0.00399683
-0.00354915
-0.0032921
0.000221109
-0.000440363
-0.00139529
-0.00133005
-0.00128803
-0.0020744
-0.0023441
-0.00277294
-0.00321488
-0.00385243
-0.00374484
-0.00418697
-0.00429343
-0.00460776
-0.0047782
-0.00455581
-0.00452516
-0.00426549
-0.00386783
-0.00363265
0.000234583
-0.000436911
-0.00140192
-0.00133604
-0.00128955
-0.00207207
-0.00235266
-0.00277141
-0.00323041
-0.00385351
-0.00376783
-0.00418524
-0.00433737
-0.0046382
-0.00485767
-0.00469533
-0.00470517
-0.00454763
-0.00420614
-0.00397408
0.000247478
-0.000431443
-0.00140874
-0.00134134
-0.00129217
-0.002069
-0.00236207
-0.00277021
-0.00324515
-0.00385608
-0.00379019
-0.00418496
-0.00438196
-0.00467607
-0.00493963
-0.00484604
-0.00489904
-0.00483998
-0.00456767
-0.00432762
0.00025938
-0.000423411
-0.00141571
-0.00134596
-0.00129581
-0.00206529
-0.00237203
-0.00276968
-0.003259
-0.00385903
-0.0038139
-0.00418346
-0.00442878
-0.00472111
-0.00502584
-0.00500678
-0.00510728
-0.00513687
-0.00493408
-0.0047281
0.000270028
-0.000412287
-0.00142283
-0.00135014
-0.00130007
-0.00206175
-0.00238157
-0.0027708
-0.00327136
-0.00386261
-0.00383892
-0.00418193
-0.00447731
-0.0047759
-0.00511933
-0.00517941
-0.00533026
-0.00544025
-0.00531259
-0.00513385
0.000279056
-0.000397553
-0.00143096
-0.00135417
-0.00130446
-0.00205908
-0.00238975
-0.00277398
-0.00328233
-0.00386708
-0.0038651
-0.00418352
-0.00452746
-0.00484717
-0.00522302
-0.00536111
-0.00556388
-0.00575035
-0.00570173
-0.00554246
0.000285941
-0.000378647
-0.00143749
-0.00135579
-0.00130811
-0.00205847
-0.00239622
-0.00277922
-0.00329325
-0.00387146
-0.0038947
-0.00419169
-0.004582
-0.00493451
-0.00533767
-0.00554732
-0.00580363
-0.00606514
-0.00609689
-0.00595394
0.000290333
-0.000355135
-0.00144262
-0.00136069
-0.00130999
-0.00206105
-0.00239905
-0.00278593
-0.0033057
-0.003876
-0.00393023
-0.00421081
-0.00463849
-0.00503111
-0.00546312
-0.00573767
-0.00604706
-0.00638187
-0.00649459
-0.00636824
0.000291922
-0.000326862
-0.00144528
-0.00136806
-0.00130956
-0.00206681
-0.00240276
-0.00279342
-0.00332212
-0.00388298
-0.0039719
-0.00424022
-0.00469474
-0.00513072
-0.00559763
-0.00593402
-0.00629519
-0.00669888
-0.00689198
-0.00678505
0.000290399
-0.000293859
-0.00144396
-0.0013786
-0.00130656
-0.00207569
-0.00240929
-0.00280168
-0.00334548
-0.00389366
-0.00401597
-0.00427847
-0.00475122
-0.00523039
-0.00573917
-0.00613884
-0.00655078
-0.00701541
-0.00728409
-0.00720121
0.000285729
-0.000256567
-0.00143703
-0.00139348
-0.00130122
-0.00208751
-0.00241965
-0.0028113
-0.003377
-0.00390782
-0.00405825
-0.00432407
-0.00481058
-0.00533004
-0.00588573
-0.0063524
-0.00681591
-0.00733146
-0.00766631
-0.00761211
0.000277905
-0.000215873
-0.00142302
-0.0014103
-0.00129446
-0.00210212
-0.00243717
-0.00282297
-0.00341435
-0.00392581
-0.0040962
-0.00437504
-0.00487631
-0.00543121
-0.00603512
-0.00657269
-0.00709094
-0.00764748
-0.0080365
-0.00801333
0.000267185
-0.000172741
-0.00140071
-0.00142969
-0.00128766
-0.00211936
-0.00246515
-0.00283604
-0.00345437
-0.00394933
-0.00412962
-0.00442891
-0.00495089
-0.00553641
-0.00618532
-0.00679631
-0.00737415
-0.00796486
-0.00839511
-0.00840139
0.000253876
-0.000128236
-0.00136917
-0.0014512
-0.00128251
-0.00213929
-0.00250411
-0.00284992
-0.00349485
-0.00398038
-0.00415995
-0.00448281
-0.00503463
-0.0056484
-0.00633552
-0.00701911
-0.00766231
-0.00828525
-0.00874459
-0.00877436
0.000238397
-8.35441e-05
-0.00132826
-0.00147425
-0.00128058
-0.00216174
-0.00255376
-0.0028646
-0.00353329
-0.00402025
-0.00419021
-0.00453392
-0.00512526
-0.00576973
-0.00648705
-0.0072376
-0.00795146
-0.00860956
-0.0090883
-0.00913207
0.00022144
-3.96769e-05
-0.00127873
-0.00149852
-0.00128311
-0.00218523
-0.002614
-0.00288133
-0.00356675
-0.00406893
-0.00422438
-0.00458065
-0.00521925
-0.00590155
-0.00664269
-0.00744986
-0.00823708
-0.00893667
-0.00942909
-0.00947588
0.000203908
2.64817e-06
-0.00122228
-0.00152416
-0.00129092
-0.0022073
-0.00268406
-0.00290286
-0.003593
-0.00412494
-0.00426709
-0.00462346
-0.00531209
-0.0060426
-0.00680555
-0.00765641
-0.00851465
-0.00926302
-0.00976815
-0.00980818
0.000186594
4.26112e-05
-0.00116071
-0.00155144
-0.00130505
-0.00222547
-0.00276227
-0.00293257
-0.00361123
-0.00418554
-0.00432235
-0.00466492
-0.00539949
-0.00618987
-0.00697811
-0.0078603
-0.00878078
-0.00958311
-0.0101044
-0.0101315
0.00017012
7.95403e-05
-0.00109532
-0.00158075
-0.00132707
-0.00223824
-0.00284599
-0.00297328
-0.00362207
-0.00424627
-0.00439188
-0.00470914
-0.00547902
-0.00633917
-0.0071611
-0.0080646
-0.00903363
-0.00989085
-0.0104348
-0.0104478
0.000155001
0.000113219
-0.00102706
-0.00161263
-0.00135938
-0.00224506
-0.00293112
-0.00302707
-0.00362769
-0.00430196
-0.00447421
-0.00476103
-0.00555075
-0.00648554
-0.00735274
-0.00827147
-0.00927335
-0.0101815
-0.0107554
-0.0107582
0.000141742
0.000143223
-0.000956824
-0.00164708
-0.00140496
-0.00224632
-0.00301226
-0.00309479
-0.00363192
-0.00434842
-0.00456574
-0.00482466
-0.00561681
-0.00662424
-0.00754917
-0.00848243
-0.00950225
-0.0104528
-0.0110619
-0.0110618
0.000130861
0.000168888
-0.000885942
-0.00168358
-0.00146626
-0.00224372
-0.00308358
-0.00317555
-0.00363956
-0.00438357
-0.00466199
-0.00490199
-0.00568062
-0.00675178
-0.00774509
-0.00869775
-0.00972383
-0.0107045
-0.0113499
-0.011355
0.00012261
0.000189469
-0.000815608
-0.00172091
-0.00154477
-0.00224036
-0.00314108
-0.0032669
-0.00365564
-0.00440757
-0.00475759
-0.00499282
-0.00574594
-0.00686628
-0.0079346
-0.00891593
-0.00994146
-0.0109383
-0.0116157
-0.011633
0.000117078
0.000203908
-0.00074714
-0.00175619
-0.00164078
-0.00224134
-0.00318215
-0.00336464
-0.00368435
-0.00442268
-0.00484702
-0.00509499
-0.00581591
-0.0069674
-0.00811192
-0.00913354
-0.0101574
-0.0111568
-0.0118575
-0.0118905
0.000114254
0.000211141
-0.000683276
-0.00178601
-0.00175292
-0.00225314
-0.0032065
-0.00346259
-0.00372801
-0.00443316
-0.00492606
-0.00520437
-0.00589248
-0.00705627
-0.00827207
-0.0093452
-0.010372
-0.0113634
-0.0120759
-0.0121243
0.000113868
0.000210283
-0.000626553
-0.00180779
-0.00187782
-0.00228189
-0.00321714
-0.00355372
-0.00378591
-0.00444392
-0.00499278
-0.00531574
-0.00597634
-0.00713533
-0.00841158
-0.00954406
-0.0105823
-0.0115607
-0.0122734
-0.0123333
0.000115455
0.000200714
-0.000580157
-0.00182013
-0.00201041
-0.00233155
-0.00321872
-0.00363231
-0.00385429
-0.00445947
-0.00504771
-0.005424
-0.00606667
-0.00720767
-0.00852899
-0.00972323
-0.0107831
-0.0117488
-0.0124526
-0.0125181
0.000117977
0.000182684
-0.000546252
-0.00182344
-0.00214525
-0.0024039
-0.00321792
-0.00369559
-0.00392806
-0.00448186
-0.00509264
-0.00552469
-0.00616079
-0.00727569
-0.00862469
-0.00987749
-0.0109677
-0.0119254
-0.0126147
-0.0126793
0.000119733
0.000156233
-0.000526499
-0.0018188
-0.00227662
-0.00249884
-0.00322246
-0.00374375
-0.00400143
-0.00451036
-0.00512918
-0.00561416
-0.00625445
-0.00734032
-0.00870048
-0.0100043
-0.0111306
-0.0120867
-0.0127593
-0.012817
0.000119155
0.000121174
-0.000522366
-0.00180669
-0.00239925
-0.0026138
-0.00323941
-0.00377917
-0.00406923
-0.00454335
-0.00515858
-0.00568931
-0.00634215
-0.00740026
-0.00875833
-0.0101031
-0.0112675
-0.0122284
-0.0128843
-0.0129302
0.000114979
7.85259e-05
-0.000535801
-0.00179432
-0.00250899
-0.0027445
-0.00327374
-0.0038056
-0.00412775
-0.00457825
-0.00518164
-0.0057476
-0.00641754
-0.0074517
-0.00879845
-0.0101729
-0.0113744
-0.012346
-0.0129873
-0.0130179
0.000105626
2.88652e-05
-0.000567768
-0.00178634
-0.00260357
-0.00288463
-0.00332805
-0.00382836
-0.00417518
-0.00461151
-0.00519833
-0.00578762
-0.00647472
-0.00748921
-0.00881853
-0.0102114
-0.0114471
-0.0124335
-0.013065
-0.0130793
8.87566e-05
-2.79254e-05
-0.000617749
-0.0017878
-0.00268449
-0.0030272
-0.00340186
-0.00385324
-0.00421172
-0.00463916
-0.00520753
-0.00580883
-0.00650907
-0.00750651
-0.00881429
-0.0102156
-0.0114812
-0.0124852
-0.0131132
-0.0131125
6.21075e-05
-9.11199e-05
-0.000684429
-0.00180342
-0.00275552
-0.00316678
-0.00349217
-0.00388442
-0.00423872
-0.00465795
-0.00520723
-0.00581065
-0.00651734
-0.00749728
-0.00878015
-0.0101814
-0.011471
-0.0124953
-0.0131249
-0.013114
2.2426e-05
-0.000162053
-0.000766555
-0.00183656
-0.00282069
-0.00330029
-0.00359559
-0.00392418
-0.00425791
-0.00466546
-0.00519492
-0.0057919
-0.00649665
-0.00745572
-0.00870958
-0.0101028
-0.0114096
-0.0124563
-0.0130935
-0.0130776
-3.19278e-05
-0.000242769
-0.000863121
-0.00188935
-0.0028853
-0.00342667
-0.00370828
-0.00397368
-0.00427117
-0.00465949
-0.00516732
-0.00575064
-0.00644391
-0.00737629
-0.00859555
-0.00997258
-0.0112906
-0.0123599
-0.0130108
-0.0129967
-0.000103223
-0.000334568
-0.000973654
-0.00196304
-0.00295498
-0.00354697
-0.0038265
-0.00403308
-0.00428097
-0.00463879
-0.00512058
-0.00568355
-0.00635575
-0.00725327
-0.00843013
-0.00978205
-0.011104
-0.0121952
-0.0128658
-0.0128622
-0.000193637
-0.000440037
-0.00109824
-0.00205815
-0.00303426
-0.00366313
-0.00394792
-0.00410194
-0.00428986
-0.00460356
-0.00505085
-0.00558614
-0.00622756
-0.0070801
-0.00820394
-0.0095192
-0.0108367
-0.011947
-0.0126432
-0.0126604
-0.000305595
-0.00056168
-0.00123752
-0.00217512
-0.00312711
-0.00377783
-0.00407105
-0.00417987
-0.00430072
-0.00455549
-0.00495599
-0.0054533
-0.00605285
-0.00684812
-0.00790537
-0.00916882
-0.0104697
-0.0115945
-0.0123213
-0.0123713
-0.000441854
-0.000702491
-0.00139267
-0.00231399
-0.00323657
-0.00389433
-0.00419507
-0.00426701
-0.0043179
-0.00449907
-0.00483686
-0.00528013
-0.00582346
-0.00654531
-0.00751846
-0.0087112
-0.00997621
-0.0111058
-0.0118651
-0.0119543
-0.000605142
-0.000865868
-0.00156583
-0.00247449
-0.00336499
-0.00401556
-0.00432013
-0.00436351
-0.00434655
-0.00444278
-0.0046981
-0.0050657
-0.00553015
-0.00615596
-0.00702195
-0.00811606
-0.00931899
-0.0104375
-0.0112247
-0.0113691
-0.000800375
-0.00105598
-0.00175897
-0.00265644
-0.00351441
-0.00414453
-0.00444669
-0.00446948
-0.00439147
-0.00439822
-0.00455361
-0.00481714
-0.00516799
-0.00566232
-0.00638516
-0.00734194
-0.00844448
-0.00952734
-0.0103393
-0.0105625
-0.00103116
-0.00127843
-0.00197443
-0.00285993
-0.00368629
-0.00428521
-0.00457652
-0.00458468
-0.00445634
-0.00437657
-0.0044275
-0.00456227
-0.00474889
-0.00504837
-0.00555869
-0.00632171
-0.00726678
-0.00826644
-0.00910196
-0.00945012
-0.00129916
-0.00153796
-0.00221612
-0.00308714
-0.00388105
-0.00444077
-0.00471258
-0.00470803
-0.004545
-0.00438436
-0.00433458
-0.00435206
-0.00433887
-0.00433382
-0.00449671
-0.00491688
-0.00559944
-0.00643696
-0.00730008
-0.00788172
-0.00160318
-0.00183136
-0.00249762
-0.00334439
-0.00409921
-0.0046125
-0.00485596
-0.00484185
-0.00466
-0.00443227
-0.00427198
-0.00419956
-0.0040732
-0.00376638
-0.00327366
-0.00279145
-0.00260114
-0.0028824
-0.00357983
-0.00443861
-0.00194846
-0.00216681
-0.00282105
-0.00363513
-0.00433776
-0.00479747
-0.00500338
-0.00498485
-0.00480679
-0.00454491
-0.00423836
-0.00396101
-0.0038909
-0.00392892
-0.00345815
-0.00212039
-0.000497451
0.000776797
0.00156196
0.00191996
-0.00236121
-0.00256813
-0.00317897
-0.00394408
-0.00458682
-0.00498364
-0.00514847
-0.00512388
-0.00494296
-0.00472614
-0.00443167
-0.00357664
-0.00226399
-0.000928498
0.000240757
0.00127888
0.00230573
0.00329643
0.00405811
0.00424816
-0.00285029
-0.00304203
-0.00358087
-0.00426646
-0.00482507
-0.00514924
-0.00526289
-0.00523561
-0.00495502
-0.004017
-0.00275202
-0.00155546
-0.000568558
0.000272531
0.00112828
0.00210381
0.00318108
0.00421249
0.00495489
0.00505293
-0.00342147
-0.00357653
-0.00405088
-0.00460349
-0.00499796
-0.00522186
-0.00522683
-0.00465899
-0.00372045
-0.00272
-0.0018348
-0.00108184
-0.000324171
0.000586801
0.00167343
0.00287667
0.00409364
0.00518077
0.00590685
0.00593253
-0.0041207
-0.00418294
-0.00453791
-0.00493935
-0.00503119
-0.00470727
-0.00422157
-0.00366821
-0.00307899
-0.00246228
-0.00176212
-0.0009401
3.69666e-05
0.00116597
0.00241488
0.00371965
0.00498368
0.00606263
0.00673348
0.00666798
-0.00496447
-0.00504469
-0.00488712
-0.00465464
-0.0043971
-0.00408734
-0.00374229
-0.00337205
-0.00290603
-0.00228304
-0.00148186
-0.000515136
0.000585497
0.00179401
0.0030893
0.00442043
0.00568981
0.00674229
0.00735397
0.00720113
-0.00567513
-0.00561456
-0.00511901
-0.00453359
-0.00407385
-0.00374192
-0.00344066
-0.00308891
-0.00260429
-0.00192983
-0.00106846
-5.25009e-05
0.00108396
0.00231988
0.003627
0.00495188
0.00619739
0.00721155
0.00777048
0.007552
-0.00621024
-0.00602828
-0.00538666
-0.00460474
-0.00394757
-0.00347862
-0.00311594
-0.00273086
-0.00222723
-0.00155176
-0.000692463
0.00032971
0.00148188
0.00273214
0.00404375
0.00535882
0.00658136
0.00756235
0.00808026
0.0078146
-0.00664117
-0.0063852
-0.00564137
-0.004712
-0.0038789
-0.00326054
-0.00280342
-0.00238055
-0.00187693
-0.00121715
-0.000373884
0.000642809
0.0018013
0.00306265
0.00437955
0.00568775
0.00689136
0.0078446
0.00832922
0.00802703
-0.00699121
-0.00667996
-0.00585199
-0.00480638
-0.0038382
-0.00309666
-0.0025539
-0.00209054
-0.00158008
-0.000933614
-0.000109336
0.000895345
0.00205504
0.00332327
0.00464367
0.00594695
0.00713631
0.00806808
0.00852703
0.00819763
-0.00725625
-0.00690887
-0.0060119
-0.00488618
-0.0038291
-0.00299895
-0.00238618
-0.00187886
-0.00134669
-0.000691873
0.000132967
0.00113418
0.00228706
0.00354888
0.00486437
0.00615995
0.00733633
0.00825114
0.00869113
0.00834224
-0.00742065
-0.00705938
-0.00613323
-0.0049669
-0.00386449
-0.00298899
-0.00233291
-0.00178903
-0.00122997
-0.000556563
0.000285063
0.00130193
0.00246753
0.00373602
0.00504888
0.00633653
0.00749851
0.00840047
0.00883089
0.00847557
0.00881453
0.00369658
-0.00379021
-0.00892362
-0.00993581
-0.00868677
-0.0072175
-0.00619418
-0.00559313
-0.00528061
-0.00516151
-0.00516675
-0.00524225
-0.00535389
-0.00548479
-0.00562539
-0.00576767
-0.00590604
-0.00603825
-0.00616363
-0.00628169
-0.00639296
-0.00649895
-0.00660124
-0.00670126
-0.006801
-0.00690227
-0.00700572
-0.00711076
-0.00721685
-0.00732435
-0.00743433
-0.00754705
-0.00766121
-0.00777497
-0.00788759
-0.00799961
-0.00811134
-0.00822191
-0.00832995
-0.00843485
-0.00853687
-0.00863653
-0.008734
-0.00882918
-0.00892187
-0.00901217
-0.0091004
-0.00918705
-0.00927241
-0.00935674
-0.00944002
-0.00952229
-0.00960363
-0.00968426
-0.00976433
-0.00984407
-0.0099236
-0.0100031
-0.0100825
-0.0101615
-0.0102404
-0.0103192
-0.0103982
-0.0104772
-0.0105561
-0.0106348
-0.0107132
-0.0107914
-0.0108694
-0.0109471
-0.0110247
-0.011102
-0.011179
-0.0112557
-0.0113322
-0.0114087
-0.0114849
-0.0115608
-0.0116365
-0.0117121
-0.0117877
-0.0118631
-0.0119383
-0.0120135
-0.0120891
-0.0121653
-0.0122418
-0.0123186
-0.0123958
-0.0124737
-0.012552
-0.0126308
-0.0127099
-0.0127891
-0.0128686
-0.0129485
-0.0130289
-0.0131099
-0.0131916
-0.0132736
-0.0133564
-0.0134395
-0.0135232
-0.0136068
-0.0136908
-0.0137749
-0.0138595
-0.0139443
-0.0140298
-0.0141156
-0.0142018
-0.0142884
-0.0143752
-0.0144623
-0.0145493
-0.0146368
-0.0147244
-0.0148127
-0.014901
-0.0149899
-0.0150789
-0.0151688
-0.0152585
-0.0153486
-0.0154385
-0.0155289
-0.0156197
-0.0157109
-0.0158027
-0.0158946
-0.015987
-0.0160793
-0.0161722
-0.0162651
-0.0163587
-0.0164528
-0.0165473
-0.0166424
-0.0167375
-0.0168333
-0.0169289
-0.0170254
-0.0171219
-0.0172196
-0.0173177
-0.0174157
-0.0175138
-0.0176118
-0.0177112
-0.01781
-0.0179101
-0.018009
-0.0181091
-0.0182082
-0.0183082
-0.0184083
-0.0185079
-0.0186083
-0.0187077
-0.0188086
-0.0189076
-0.0190079
-0.0191071
-0.0192071
-0.0193067
-0.019406
-0.0195061
-0.0196042
-0.0197038
-0.0198023
-0.0199025
-0.020002
-0.0201001
-0.0201989
-0.0202962
-0.0203978
-0.0204962
-0.0205948
-0.0206913
-0.0207891
-0.0208911
-0.020988
-0.0210863
-0.0211807
-0.0212815
-0.0213806
-0.0214772
-0.0215739
-0.0216693
-0.0217707
-0.0218652
-0.021962
-0.0220566
-0.0221491
-0.022249
-0.0223316
-0.0224203
-0.0224967
-0.0225602
0.00805132
0.00352064
-0.00370927
-0.00879228
-0.00985855
-0.00864981
-0.00719413
-0.00617754
-0.005581
-0.00527129
-0.00515391
-0.00516028
-0.00523659
-0.00534884
-0.00548023
-0.00562126
-0.00576392
-0.00590261
-0.00603511
-0.00616075
-0.00627904
-0.00639053
-0.0064967
-0.00659915
-0.00669932
-0.00679918
-0.00690056
-0.00700411
-0.00710924
-0.00721541
-0.00732298
-0.00743303
-0.00754581
-0.00766003
-0.00777385
-0.00788652
-0.00799858
-0.00811036
-0.00822097
-0.00832906
-0.00843399
-0.00853605
-0.00863574
-0.00873324
-0.00882846
-0.00892118
-0.00901151
-0.00909977
-0.00918644
-0.00927182
-0.00935618
-0.00943948
-0.00952177
-0.00960312
-0.00968378
-0.00976387
-0.00984362
-0.00992317
-0.0100027
-0.0100821
-0.0101611
-0.01024
-0.0103188
-0.0103978
-0.0104769
-0.0105558
-0.0106344
-0.0107129
-0.0107911
-0.0108691
-0.0109468
-0.0110244
-0.0111017
-0.0111787
-0.0112554
-0.011332
-0.0114084
-0.0114846
-0.0115606
-0.0116363
-0.0117119
-0.0117875
-0.0118629
-0.0119381
-0.0120133
-0.0120889
-0.0121651
-0.0122416
-0.0123184
-0.0123957
-0.0124735
-0.0125519
-0.0126307
-0.0127097
-0.0127889
-0.0128684
-0.0129483
-0.0130288
-0.0131098
-0.0131914
-0.0132735
-0.0133563
-0.0134394
-0.013523
-0.0136067
-0.0136907
-0.0137748
-0.0138594
-0.0139442
-0.0140297
-0.0141155
-0.0142017
-0.0142883
-0.0143751
-0.0144622
-0.0145492
-0.0146367
-0.0147243
-0.0148126
-0.0149009
-0.0149898
-0.0150789
-0.0151687
-0.0152585
-0.0153485
-0.0154385
-0.0155288
-0.0156196
-0.0157108
-0.0158026
-0.0158945
-0.0159869
-0.0160793
-0.0161721
-0.0162651
-0.0163586
-0.0164527
-0.0165472
-0.0166424
-0.0167374
-0.0168332
-0.0169289
-0.0170254
-0.0171219
-0.0172195
-0.0173176
-0.0174157
-0.0175138
-0.0176118
-0.0177112
-0.01781
-0.01791
-0.0180089
-0.018109
-0.0182082
-0.0183082
-0.0184082
-0.0185079
-0.0186082
-0.0187076
-0.0188085
-0.0189075
-0.0190079
-0.0191071
-0.019207
-0.0193067
-0.019406
-0.0195061
-0.0196042
-0.0197038
-0.0198023
-0.0199025
-0.020002
-0.0201001
-0.0201989
-0.0202962
-0.0203977
-0.0204962
-0.0205947
-0.0206913
-0.0207891
-0.0208911
-0.020988
-0.0210863
-0.0211807
-0.0212815
-0.0213806
-0.0214772
-0.0215739
-0.0216692
-0.0217707
-0.0218652
-0.021962
-0.0220566
-0.0221491
-0.022249
-0.0223316
-0.0224203
-0.0224967
-0.0225602
0.00725713
0.00334984
-0.00352896
-0.00854091
-0.00971684
-0.00859328
-0.00716361
-0.00615425
-0.00556274
-0.00525737
-0.00514325
-0.00515185
-0.00522967
-0.00534296
-0.00547511
-0.00561672
-0.00575983
-0.0058989
-0.00603173
-0.00615766
-0.00627621
-0.00638793
-0.00649432
-0.00659696
-0.00669729
-0.0067973
-0.00689881
-0.00700247
-0.00710771
-0.00721397
-0.00732162
-0.00743173
-0.00754458
-0.00765886
-0.00777274
-0.00788546
-0.00799757
-0.00810939
-0.00822004
-0.00832818
-0.00843315
-0.00853524
-0.00863497
-0.00873251
-0.00882775
-0.0089205
-0.00901086
-0.00909915
-0.00918584
-0.00927125
-0.00935563
-0.00943895
-0.00952126
-0.00960263
-0.00968331
-0.00976341
-0.00984318
-0.00992274
-0.0100023
-0.0100817
-0.0101608
-0.0102396
-0.0103185
-0.0103975
-0.0104765
-0.0105554
-0.0106341
-0.0107126
-0.0107908
-0.0108688
-0.0109465
-0.0110241
-0.0111015
-0.0111785
-0.0112552
-0.0113317
-0.0114082
-0.0114844
-0.0115604
-0.0116361
-0.0117117
-0.0117872
-0.0118627
-0.0119379
-0.0120131
-0.0120887
-0.0121649
-0.0122414
-0.0123183
-0.0123955
-0.0124733
-0.0125517
-0.0126305
-0.0127095
-0.0127888
-0.0128683
-0.0129482
-0.0130286
-0.0131097
-0.0131913
-0.0132734
-0.0133561
-0.0134393
-0.0135229
-0.0136066
-0.0136906
-0.0137746
-0.0138593
-0.0139441
-0.0140296
-0.0141153
-0.0142016
-0.0142882
-0.014375
-0.0144621
-0.0145491
-0.0146366
-0.0147242
-0.0148125
-0.0149008
-0.0149897
-0.0150788
-0.0151686
-0.0152584
-0.0153484
-0.0154384
-0.0155287
-0.0156195
-0.0157107
-0.0158025
-0.0158945
-0.0159869
-0.0160792
-0.016172
-0.016265
-0.0163585
-0.0164526
-0.0165472
-0.0166423
-0.0167374
-0.0168332
-0.0169288
-0.0170253
-0.0171218
-0.0172195
-0.0173175
-0.0174156
-0.0175137
-0.0176117
-0.0177111
-0.0178099
-0.01791
-0.0180089
-0.018109
-0.0182081
-0.0183081
-0.0184082
-0.0185078
-0.0186082
-0.0187076
-0.0188085
-0.0189075
-0.0190079
-0.019107
-0.019207
-0.0193066
-0.019406
-0.019506
-0.0196042
-0.0197038
-0.0198022
-0.0199025
-0.020002
-0.0201001
-0.0201989
-0.0202962
-0.0203977
-0.0204961
-0.0205947
-0.0206912
-0.020789
-0.020891
-0.020988
-0.0210863
-0.0211807
-0.0212815
-0.0213806
-0.0214772
-0.0215739
-0.0216692
-0.0217707
-0.0218652
-0.021962
-0.0220566
-0.0221491
-0.022249
-0.0223316
-0.0224203
-0.0224967
-0.0225602
0.00650277
0.00320007
-0.00327703
-0.0082052
-0.00951788
-0.00851244
-0.00712025
-0.00611943
-0.00553441
-0.00523601
-0.00512757
-0.00514007
-0.00522041
-0.00533537
-0.00546867
-0.0056111
-0.00575481
-0.00589437
-0.0060276
-0.00615387
-0.00627274
-0.00638475
-0.00649142
-0.00659432
-0.00669489
-0.00679511
-0.0068968
-0.00700061
-0.00710599
-0.00721237
-0.00732013
-0.00743034
-0.00754326
-0.00765761
-0.00777155
-0.00788434
-0.0079965
-0.00810837
-0.00821907
-0.00832725
-0.00843226
-0.0085344
-0.00863417
-0.00873174
-0.00882702
-0.00891979
-0.00901018
-0.0090985
-0.00918522
-0.00927065
-0.00935506
-0.0094384
-0.00952073
-0.00960212
-0.00968282
-0.00976294
-0.00984273
-0.00992231
-0.0100019
-0.0100812
-0.0101604
-0.0102392
-0.0103181
-0.0103971
-0.0104762
-0.0105551
-0.0106338
-0.0107122
-0.0107905
-0.0108685
-0.0109463
-0.0110239
-0.0111012
-0.0111782
-0.0112549
-0.0113315
-0.0114079
-0.0114842
-0.0115601
-0.0116358
-0.0117114
-0.011787
-0.0118625
-0.0119377
-0.0120129
-0.0120885
-0.0121647
-0.0122412
-0.0123181
-0.0123953
-0.0124732
-0.0125515
-0.0126303
-0.0127094
-0.0127886
-0.0128681
-0.012948
-0.0130285
-0.0131095
-0.0131912
-0.0132732
-0.013356
-0.0134391
-0.0135228
-0.0136064
-0.0136905
-0.0137745
-0.0138591
-0.013944
-0.0140295
-0.0141152
-0.0142015
-0.0142881
-0.0143749
-0.014462
-0.014549
-0.0146365
-0.0147241
-0.0148124
-0.0149007
-0.0149896
-0.0150787
-0.0151685
-0.0152583
-0.0153484
-0.0154383
-0.0155286
-0.0156195
-0.0157107
-0.0158025
-0.0158944
-0.0159868
-0.0160791
-0.016172
-0.0162649
-0.0163585
-0.0164526
-0.0165471
-0.0166422
-0.0167373
-0.0168331
-0.0169288
-0.0170253
-0.0171218
-0.0172194
-0.0173175
-0.0174156
-0.0175137
-0.0176117
-0.0177111
-0.0178099
-0.0179099
-0.0180089
-0.0181089
-0.0182081
-0.0183081
-0.0184081
-0.0185078
-0.0186082
-0.0187076
-0.0188085
-0.0189075
-0.0190078
-0.019107
-0.019207
-0.0193066
-0.019406
-0.019506
-0.0196042
-0.0197037
-0.0198022
-0.0199025
-0.020002
-0.0201001
-0.0201989
-0.0202961
-0.0203977
-0.0204961
-0.0205947
-0.0206912
-0.020789
-0.020891
-0.020988
-0.0210863
-0.0211807
-0.0212815
-0.0213806
-0.0214772
-0.0215739
-0.0216692
-0.0217707
-0.0218652
-0.021962
-0.0220566
-0.0221491
-0.022249
-0.0223316
-0.0224202
-0.0224967
-0.0225602
0.00577758
0.0030354
-0.00300673
-0.00783856
-0.00929363
-0.0084205
-0.00707056
-0.00607624
-0.00549683
-0.00520673
-0.00510587
-0.00512378
-0.00520767
-0.00532502
-0.00545998
-0.00560358
-0.00574814
-0.00588833
-0.00602208
-0.0061488
-0.00626806
-0.00638045
-0.00648748
-0.00659075
-0.00669169
-0.00679223
-0.00689418
-0.00699822
-0.00710379
-0.00721036
-0.00731829
-0.00742864
-0.00754166
-0.0076561
-0.00777012
-0.00788299
-0.00799524
-0.00810717
-0.00821792
-0.00832614
-0.0084312
-0.00853339
-0.00863321
-0.00873082
-0.00882614
-0.00891896
-0.00900938
-0.00909773
-0.00918449
-0.00926996
-0.00935439
-0.00943776
-0.00952011
-0.00960153
-0.00968225
-0.0097624
-0.00984222
-0.00992181
-0.0100014
-0.0100808
-0.0101599
-0.0102388
-0.0103177
-0.0103967
-0.0104758
-0.0105547
-0.0106334
-0.0107119
-0.0107901
-0.0108682
-0.0109459
-0.0110236
-0.0111009
-0.0111779
-0.0112546
-0.0113312
-0.0114077
-0.0114839
-0.0115599
-0.0116356
-0.0117112
-0.0117868
-0.0118623
-0.0119375
-0.0120127
-0.0120883
-0.0121645
-0.012241
-0.0123179
-0.0123951
-0.012473
-0.0125513
-0.0126302
-0.0127092
-0.0127885
-0.012868
-0.0129478
-0.0130283
-0.0131094
-0.013191
-0.0132731
-0.0133558
-0.013439
-0.0135227
-0.0136063
-0.0136903
-0.0137744
-0.013859
-0.0139439
-0.0140293
-0.0141151
-0.0142014