/*--------------------------------*- C++ -*----------------------------------*\
| =========                 |                                                 |
| \\      /  F ield         | OpenFOAM: The Open Source CFD Toolbox           |
|  \\    /   O peration     | Version:  v2012                                 |
|   \\  /    A nd           | Website:  www.openfoam.com                      |
|    \\/     M anipulation  |                                                 |
\*---------------------------------------------------------------------------*/
FoamFile
{
    version     2.0;
    format      ascii;
    class       volScalarField;
    location    "4.65";
    object      p;
}
// * * * * * * * * * * * * * * * * * * * * * * * * * * * * * * * * * * * * * //

dimensions      [0 2 -2 0 0 0 0];


internalField   nonuniform List<scalar> 
17600
(
-6.90552e-12
-0.000939135
-0.000581033
-0.00151046
-0.00194865
-0.0031818
-0.00337036
-0.00396658
-0.00471746
-0.00475392
-0.00538713
-0.00522455
-0.00542849
-0.00535438
-0.00522597
-0.0045672
-0.00391207
-0.00233394
-0.00051169
0.0031605
2.36918e-07
-0.000939711
-0.000580699
-0.00151257
-0.00194736
-0.00318494
-0.00336812
-0.00396901
-0.00471542
-0.00475574
-0.00538496
-0.00522807
-0.00542637
-0.00536293
-0.00522241
-0.00458875
-0.00390452
-0.00239583
-0.000499244
0.00285632
2.21821e-07
-0.000940728
-0.000580984
-0.00151566
-0.00194598
-0.00318963
-0.00336365
-0.0039726
-0.00471138
-0.00475846
-0.00538169
-0.00523374
-0.00542377
-0.00537436
-0.00521836
-0.00461413
-0.00389698
-0.00246313
-0.000501862
0.00244039
-4.19564e-07
-0.000942097
-0.00058226
-0.00151956
-0.00194566
-0.00319524
-0.00335856
-0.00397599
-0.00470623
-0.00476052
-0.00537859
-0.00523976
-0.00542177
-0.00538656
-0.00521507
-0.00464075
-0.00389205
-0.0025303
-0.0005346
0.00203171
-1.73694e-06
-0.000943865
-0.000584403
-0.00152457
-0.00194606
-0.00320181
-0.00335283
-0.0039787
-0.00470011
-0.00476211
-0.00537555
-0.0052464
-0.00541979
-0.00540012
-0.00521153
-0.0046698
-0.0038889
-0.00260118
-0.00059889
0.00164454
-3.69123e-06
-0.000946015
-0.000587156
-0.00153063
-0.00194661
-0.00320908
-0.00334607
-0.00398046
-0.00469316
-0.00476351
-0.00537234
-0.00525387
-0.00541742
-0.00541517
-0.00520759
-0.00470144
-0.00388847
-0.00267687
-0.000693389
0.00128085
-6.19016e-06
-0.000948448
-0.000590218
-0.00153747
-0.00194706
-0.00321665
-0.00333826
-0.0039812
-0.00468557
-0.0047648
-0.00536891
-0.0052621
-0.00541463
-0.00543159
-0.00520389
-0.00473504
-0.00389302
-0.00275657
-0.000816631
0.000936273
-9.08722e-06
-0.000951048
-0.000593347
-0.00154481
-0.00194739
-0.00322424
-0.00332967
-0.003981
-0.0046776
-0.00476602
-0.00536533
-0.00527099
-0.0054116
-0.00544924
-0.00520119
-0.00476978
-0.00390507
-0.00283882
-0.000967474
0.000604615
-1.2226e-05
-0.000953742
-0.000596439
-0.00155248
-0.00194768
-0.00323175
-0.00332062
-0.00398001
-0.00466946
-0.00476722
-0.0053617
-0.00528047
-0.00540861
-0.00546791
-0.00520028
-0.00480477
-0.00392684
-0.00292283
-0.00114431
0.000279759
-1.54923e-05
-0.00095651
-0.000599502
-0.00156042
-0.00194803
-0.00323917
-0.00331134
-0.00397834
-0.00466133
-0.00476838
-0.00535813
-0.0052904
-0.00540597
-0.00548718
-0.00520208
-0.00483925
-0.00395998
-0.00300875
-0.00134441
-4.36258e-05
-1.88287e-05
-0.000959365
-0.000602588
-0.00156857
-0.00194853
-0.00324651
-0.00330197
-0.00397598
-0.00465334
-0.00476939
-0.00535475
-0.00530061
-0.00540405
-0.00550654
-0.00520759
-0.00487268
-0.00400559
-0.0030979
-0.00156395
-0.000369606
-2.22145e-05
-0.000962326
-0.000605745
-0.00157691
-0.00194922
-0.00325376
-0.00329261
-0.00397283
-0.00464566
-0.00477009
-0.00535176
-0.00531081
-0.00540327
-0.00552551
-0.00521775
-0.0049049
-0.004064
-0.00319278
-0.00179845
-0.000700646
-2.56408e-05
-0.000965407
-0.000609
-0.00158538
-0.00195016
-0.00326083
-0.00328334
-0.00396878
-0.00463846
-0.00477025
-0.00534943
-0.00532064
-0.00540413
-0.00554367
-0.00523328
-0.00493644
-0.00413472
-0.00329656
-0.00204374
-0.00103764
-2.90966e-05
-0.000968617
-0.000612361
-0.00159393
-0.00195144
-0.00326764
-0.0032743
-0.00396364
-0.00463196
-0.00476963
-0.00534806
-0.00532978
-0.0054071
-0.00556078
-0.00525451
-0.00496868
-0.00421641
-0.00341217
-0.00229677
-0.00138036
-3.25662e-05
-0.00097196
-0.000615832
-0.00160246
-0.00195315
-0.00327402
-0.00326568
-0.00395724
-0.00462642
-0.00476795
-0.00534795
-0.00533798
-0.00541254
-0.00557689
-0.00528137
-0.0050037
-0.00430742
-0.00354159
-0.002556
-0.00172779
-3.60303e-05
-0.000975436
-0.000619419
-0.0016109
-0.00195539
-0.00327982
-0.0032577
-0.00394932
-0.00462214
-0.00476491
-0.00534938
-0.00534508
-0.00542056
-0.00559251
-0.00531326
-0.00504385
-0.00440658
-0.00368595
-0.00282085
-0.00207855
-3.94705e-05
-0.000979039
-0.000623137
-0.00161915
-0.0019583
-0.00328484
-0.00325065
-0.00393958
-0.00461949
-0.00476023
-0.00535256
-0.0053511
-0.00543095
-0.00560874
-0.00534916
-0.00509119
-0.00451377
-0.00384525
-0.00309138
-0.00243149
-4.28703e-05
-0.000982757
-0.000627011
-0.0016271
-0.00196203
-0.00328886
-0.00324483
-0.00392771
-0.00461877
-0.00475372
-0.00535755
-0.00535635
-0.00544315
-0.00562715
-0.00538799
-0.005147
-0.00462975
-0.00401834
-0.00336767
-0.00278592
-4.62162e-05
-0.000986567
-0.000631081
-0.00163461
-0.00196673
-0.00329163
-0.00324058
-0.00391336
-0.00462026
-0.00474528
-0.00536419
-0.00536151
-0.00545614
-0.0056495
-0.00542929
-0.00521185
-0.0047559
-0.00420366
-0.00364923
-0.00314134
-4.95004e-05
-0.000990425
-0.000635405
-0.00164151
-0.00197263
-0.00329287
-0.0032383
-0.00389625
-0.00462413
-0.00473505
-0.00537195
-0.00536762
-0.00546854
-0.00567729
-0.00547374
-0.00528575
-0.00489412
-0.00440028
-0.00393474
-0.00349722
-5.27215e-05
-0.000994258
-0.000640066
-0.00164761
-0.00197997
-0.0032923
-0.00323834
-0.00387615
-0.00463039
-0.0047235
-0.00537996
-0.00537595
-0.0054789
-0.0057111
-0.00552295
-0.00536805
-0.00504625
-0.00460893
-0.00422283
-0.00385265
-5.58891e-05
-0.000997954
-0.000645175
-0.00165266
-0.00198901
-0.00328966
-0.00324101
-0.00385298
-0.00463893
-0.0047113
-0.00538687
-0.00538797
-0.00548644
-0.00575071
-0.00557932
-0.005458
-0.00521328
-0.00483192
-0.00451309
-0.00420629
-5.90411e-05
-0.00100136
-0.000650859
-0.00165643
-0.002
-0.00328472
-0.00324647
-0.00382672
-0.00464942
-0.0046994
-0.00539106
-0.00540487
-0.00549145
-0.00579497
-0.00564527
-0.00555539
-0.00539509
-0.00507201
-0.00480673
-0.00455689
-6.22572e-05
-0.00100426
-0.000657271
-0.00165864
-0.00201322
-0.00327729
-0.00325479
-0.00379731
-0.00466124
-0.00468904
-0.00539106
-0.00542725
-0.00549495
-0.005842
-0.00572237
-0.00566047
-0.00559088
-0.00533235
-0.00510711
-0.00490437
-6.56175e-05
-0.0010064
-0.000664571
-0.0016591
-0.00202886
-0.0032674
-0.00326584
-0.00376684
-0.00467329
-0.00468141
-0.00538555
-0.00545513
-0.00549843
-0.00589013
-0.00581154
-0.00577316
-0.00579891
-0.00561565
-0.00542171
-0.00525159
-6.92309e-05
-0.0010074
-0.000672889
-0.00165764
-0.00204705
-0.0032553
-0.0032793
-0.00373569
-0.00468755
-0.00467756
-0.00537395
-0.00548799
-0.00550343
-0.00593773
-0.00591341
-0.00589199
-0.00600947
-0.00592145
-0.00576636
-0.00560608
-7.32853e-05
-0.00100688
-0.000682343
-0.00165415
-0.00206787
-0.00324135
-0.00329463
-0.00370458
-0.00469372
-0.00467834
-0.00535697
-0.00552478
-0.00551156
-0.00598244
-0.00602732
-0.00601863
-0.00621894
-0.00623759
-0.00612458
-0.00599959
-7.79999e-05
-0.00100447
-0.000692944
-0.0016486
-0.00209106
-0.00322635
-0.00331095
-0.00367432
-0.004696
-0.00468397
-0.00533547
-0.00556465
-0.00552556
-0.0060233
-0.00615195
-0.00616557
-0.00643542
-0.0065629
-0.00650193
-0.00639681
-8.36309e-05
-0.000999796
-0.000704634
-0.00164117
-0.00211607
-0.00321127
-0.00332737
-0.00364553
-0.00469428
-0.00469472
-0.00530967
-0.00560612
-0.00555077
-0.00606595
-0.00629113
-0.00633342
-0.00665572
-0.00689324
-0.00689511
-0.00679525
-9.04071e-05
-0.0009925
-0.000717187
-0.00163223
-0.00214234
-0.00319682
-0.00334343
-0.00361864
-0.00468872
-0.00471132
-0.00528131
-0.00564942
-0.00559256
-0.00611186
-0.00643961
-0.00652094
-0.00688011
-0.00722233
-0.00729682
-0.00719651
-9.85597e-05
-0.000982293
-0.000730006
-0.00162242
-0.00216917
-0.00318356
-0.00335901
-0.00359406
-0.00467954
-0.00473506
-0.00525535
-0.00569526
-0.00565105
-0.00615988
-0.00658915
-0.00672541
-0.00711125
-0.00754659
-0.00770135
-0.00760039
-0.000108289
-0.000969004
-0.00074233
-0.00161239
-0.00219603
-0.00317181
-0.00337428
-0.00357246
-0.0046673
-0.00476768
-0.0052347
-0.0057407
-0.0057246
-0.00621151
-0.00673399
-0.00694268
-0.00735171
-0.00786566
-0.00810366
-0.00800638
-0.000119636
-0.000952826
-0.000753112
-0.00160245
-0.0022228
-0.00316137
-0.00338992
-0.00355568
-0.00465314
-0.00480929
-0.00521994
-0.00578106
-0.00581082
-0.0062698
-0.00687213
-0.00716807
-0.00760251
-0.00818052
-0.00849992
-0.00841368
-0.000132615
-0.000934202
-0.000761079
-0.00159253
-0.00224951
-0.00315207
-0.00340162
-0.00354725
-0.00463855
-0.00485787
-0.00521107
-0.00581254
-0.00590587
-0.0063383
-0.00700445
-0.00739733
-0.00786327
-0.00849224
-0.00888825
-0.00882109
-0.000147117
-0.000913816
-0.000765204
-0.00158184
-0.00227691
-0.00314478
-0.00342441
-0.0035501
-0.00462387
-0.00490968
-0.00520912
-0.00583437
-0.0060053
-0.00642015
-0.00713384
-0.00762731
-0.008133
-0.0088019
-0.009267
-0.00922599
-0.000162757
-0.000892787
-0.00076498
-0.00156901
-0.00230547
-0.00314129
-0.00345252
-0.00356448
-0.00460753
-0.0049612
-0.00521563
-0.00584878
-0.00610521
-0.00651657
-0.00726393
-0.00785615
-0.00841044
-0.0091099
-0.00963376
-0.00962397
-0.000179092
-0.000872114
-0.000760425
-0.00155306
-0.00233662
-0.00314369
-0.00348511
-0.00358874
-0.00458859
-0.0050096
-0.00523199
-0.00585916
-0.0062028
-0.0066265
-0.00739776
-0.00808272
-0.00869368
-0.00941593
-0.00998614
-0.0100101
-0.000195567
-0.000852742
-0.000752475
-0.00153325
-0.00237082
-0.00315261
-0.00351972
-0.00362237
-0.00456866
-0.00505274
-0.00525891
-0.00586966
-0.00629655
-0.00674775
-0.0075371
-0.0083063
-0.00897986
-0.00972002
-0.0103234
-0.0103805
-0.000211396
-0.00083554
-0.000743269
-0.00150892
-0.00240716
-0.00316863
-0.00355473
-0.00366442
-0.00455072
-0.00508966
-0.00529587
-0.00588404
-0.00638571
-0.00687701
-0.00768233
-0.00852637
-0.00926613
-0.0100229
-0.0106469
-0.0107326
-0.000225746
-0.000821011
-0.000735544
-0.00147989
-0.00244329
-0.00319282
-0.00358997
-0.00371312
-0.00453753
-0.00512002
-0.00534078
-0.0059052
-0.0064705
-0.00701041
-0.00783228
-0.00874206
-0.00955009
-0.0103257
-0.0109592
-0.0110653
-0.000237939
-0.000809452
-0.000731603
-0.00144646
-0.00247711
-0.00322626
-0.00362589
-0.00376638
-0.00453104
-0.00514404
-0.00539032
-0.00593484
-0.00655249
-0.00714496
-0.00798526
-0.00895229
-0.00982977
-0.0106286
-0.0112631
-0.0113787
-0.000247474
-0.000800918
-0.000733487
-0.00140973
-0.00250714
-0.00326907
-0.00366296
-0.00382204
-0.0045328
-0.00516348
-0.00544105
-0.0059728
-0.00663383
-0.00727931
-0.00813961
-0.00915587
-0.0101027
-0.0109308
-0.011561
-0.0116742
-0.000254022
-0.000794745
-0.000742643
-0.00137239
-0.00253362
-0.00332031
-0.003702
-0.0038771
-0.00454324
-0.00518126
-0.00549115
-0.00601745
-0.00671641
-0.00741401
-0.00829441
-0.00935122
-0.010365
-0.0112293
-0.0118545
-0.0119544
-0.000256909
-0.000789517
-0.000759237
-0.00134038
-0.00255861
-0.00337907
-0.00373784
-0.00392735
-0.00456044
-0.00519988
-0.00553984
-0.0060663
-0.00680053
-0.0075503
-0.00845018
-0.00953723
-0.0106124
-0.0115201
-0.0121442
-0.0122235
-0.000255985
-0.000781502
-0.000784442
-0.00131993
-0.00258544
-0.00344186
-0.00377229
-0.00396948
-0.0045818
-0.00522119
-0.0055866
-0.00611612
-0.00688403
-0.00768793
-0.00860802
-0.00971404
-0.0108411
-0.0117974
-0.0124286
-0.0124849
-0.00025011
-0.000767059
-0.000821493
-0.00132951
-0.00261431
-0.00350401
-0.00380433
-0.00400289
-0.00460459
-0.00524676
-0.00563273
-0.00616445
-0.00696409
-0.00782479
-0.00876819
-0.00988334
-0.0110497
-0.0120551
-0.0127032
-0.0127398
-0.000238115
-0.000750105
-0.000882098
-0.00134845
-0.0026346
-0.00356636
-0.00384072
-0.00402901
-0.00462641
-0.00527787
-0.00568136
-0.00621174
-0.00703844
-0.0079574
-0.00892945
-0.0100476
-0.0112387
-0.0122885
-0.0129617
-0.0129866
-0.000233431
-0.000736458
-0.000931372
-0.00137012
-0.0026551
-0.00363566
-0.00388966
-0.00405182
-0.00464476
-0.00531255
-0.00573378
-0.00625924
-0.00710535
-0.00808154
-0.00909057
-0.0102105
-0.0114121
-0.0124963
-0.0131991
-0.0132225
-0.000235973
-0.000737223
-0.000964786
-0.00139406
-0.00267446
-0.00370859
-0.00395116
-0.0040747
-0.00465642
-0.00534717
-0.00579034
-0.00630721
-0.00716202
-0.0081922
-0.00924741
-0.0103725
-0.011573
-0.0126785
-0.0134102
-0.0134414
-0.000228187
-0.000718176
-0.00105004
-0.00144616
-0.00267975
-0.00377141
-0.00402489
-0.00410185
-0.00465964
-0.00537772
-0.00585075
-0.00635612
-0.00720589
-0.00828304
-0.00939298
-0.0105306
-0.0117225
-0.0128354
-0.0135903
-0.0136356
-0.000225099
-0.000714865
-0.00112876
-0.00150856
-0.00268131
-0.00382651
-0.00410967
-0.00413674
-0.00465466
-0.00539944
-0.005912
-0.00640688
-0.00723958
-0.00835225
-0.00952122
-0.0106828
-0.0118648
-0.0129721
-0.0137405
-0.0138013
-0.000236898
-0.000709903
-0.001198
-0.0015803
-0.00268838
-0.00387454
-0.00420185
-0.00418291
-0.00464466
-0.00540949
-0.00597063
-0.0064615
-0.00726753
-0.00839961
-0.00962446
-0.0108227
-0.0120006
-0.0130939
-0.0138638
-0.0139366
-0.000259688
-0.000712794
-0.00125907
-0.00166241
-0.00270307
-0.00391399
-0.00429802
-0.00424248
-0.00463347
-0.005404
-0.00602043
-0.00651985
-0.00729226
-0.00842339
-0.00969496
-0.0109384
-0.0121243
-0.0132027
-0.0139637
-0.0140415
-0.000287489
-0.000722492
-0.00132653
-0.00175771
-0.00272617
-0.00394274
-0.00439418
-0.00431709
-0.00462468
-0.00537971
-0.00605326
-0.00657819
-0.00731654
-0.00842509
-0.00972724
-0.0110192
-0.0122276
-0.0132971
-0.0140432
-0.0141181
-0.000320565
-0.000738966
-0.00140796
-0.00186667
-0.00275914
-0.00396174
-0.00448558
-0.0044053
-0.00462217
-0.00533782
-0.00606252
-0.0066284
-0.00733983
-0.00840875
-0.00972033
-0.0110572
-0.0122993
-0.0133709
-0.0141026
-0.0141687
-0.000370388
-0.000768419
-0.00147827
-0.00198755
-0.00280826
-0.00397468
-0.0045664
-0.00450187
-0.00462879
-0.00528175
-0.00604286
-0.00665903
-0.00735591
-0.00837771
-0.00967805
-0.0110488
-0.0123292
-0.0134138
-0.014139
-0.0141949
-0.000434467
-0.000807359
-0.00155077
-0.00211663
-0.00287546
-0.003985
-0.00463281
-0.00460303
-0.00465066
-0.00521929
-0.00599316
-0.00666116
-0.00735754
-0.00833325
-0.00960472
-0.0109917
-0.0123073
-0.0134145
-0.0141427
-0.0141927
-0.00051576
-0.000854591
-0.00162642
-0.00225022
-0.00296177
-0.00399831
-0.00468555
-0.00470386
-0.00468795
-0.00515624
-0.00591265
-0.00662499
-0.00733407
-0.00826993
-0.00949955
-0.0108833
-0.0122261
-0.0133613
-0.014102
-0.0141551
-0.000617671
-0.000938826
-0.0016897
-0.00238839
-0.00306799
-0.00401898
-0.00472384
-0.00479675
-0.00473476
-0.00509432
-0.00580381
-0.00654323
-0.00727261
-0.00817759
-0.00935828
-0.0107217
-0.0120804
-0.0132449
-0.0140076
-0.0140731
-0.000723608
-0.00101356
-0.00180072
-0.00254098
-0.00319056
-0.00405004
-0.00474986
-0.00487712
-0.00478721
-0.00503715
-0.00567196
-0.00641403
-0.0071623
-0.0080442
-0.00917379
-0.010503
-0.0118644
-0.0130562
-0.0138496
-0.0139393
-0.00085096
-0.00113344
-0.00190846
-0.00269364
-0.0033301
-0.00409706
-0.00476839
-0.00494212
-0.00483909
-0.00498412
-0.00552044
-0.00623598
-0.00699167
-0.00785426
-0.00893355
-0.0102179
-0.0115687
-0.0127826
-0.0136142
-0.0137425
-0.00100927
-0.00126664
-0.00202949
-0.00284785
-0.00348484
-0.00416457
-0.00478657
-0.00499212
-0.00488577
-0.00493284
-0.00535238
-0.00600952
-0.00675076
-0.00759107
-0.00862016
-0.00985169
-0.0111792
-0.0124074
-0.0132764
-0.0134519
-0.00119556
-0.00143988
-0.00215721
-0.00300453
-0.00365042
-0.00425555
-0.00481587
-0.00503366
-0.00492566
-0.00488099
-0.00516878
-0.00573372
-0.00643037
-0.00723577
-0.00820979
-0.00938079
-0.0106717
-0.011901
-0.0128061
-0.0130405
-0.00140451
-0.00162387
-0.00232481
-0.00317419
-0.00382448
-0.00437177
-0.00486687
-0.00507642
-0.00496063
-0.00482798
-0.00497071
-0.00540921
-0.00602529
-0.00676718
-0.00766884
-0.00876549
-0.0100054
-0.0112255
-0.0121679
-0.0124767
-0.00164225
-0.0018417
-0.00251018
-0.00334939
-0.00400135
-0.00451439
-0.00494764
-0.0051294
-0.00500108
-0.00478718
-0.00477254
-0.00504626
-0.0055318
-0.00616655
-0.00696284
-0.00795821
-0.00912806
-0.0103309
-0.0113179
-0.0117261
-0.00194299
-0.00209819
-0.00270614
-0.00347784
-0.00415629
-0.00468258
-0.00506087
-0.00519691
-0.00505039
-0.00477307
-0.00459605
-0.00465891
-0.00494477
-0.00540294
-0.00604205
-0.00688833
-0.00795241
-0.00912529
-0.0101744
-0.0107291
-0.00230541
-0.00255629
-0.0029384
-0.00353958
-0.00428465
-0.0048647
-0.00518083
-0.0052589
-0.00509882
-0.00478925
-0.0044781
-0.00428061
-0.00426681
-0.0044297
-0.00479993
-0.00542338
-0.00629316
-0.00738974
-0.00853054
-0.00933372
-0.00259697
-0.00272003
-0.00327034
-0.00397534
-0.00462339
-0.00505913
-0.00528632
-0.00531179
-0.00513435
-0.00483886
-0.004478
-0.00406853
-0.00361546
-0.00322334
-0.00304553
-0.00318987
-0.0036904
-0.00448382
-0.0054627
-0.00642734
-0.00296189
-0.00310072
-0.00366008
-0.00435977
-0.00492449
-0.00524334
-0.00537529
-0.0053589
-0.00515747
-0.00482035
-0.00457071
-0.00429981
-0.00354581
-0.00253153
-0.00176194
-0.00138779
-0.00125103
-0.00113396
-0.000909584
-0.000657758
-0.00343168
-0.00359731
-0.0040585
-0.0046816
-0.0051731
-0.00541055
-0.00544699
-0.00539802
-0.00525046
-0.00455909
-0.00348685
-0.00248849
-0.00169909
-0.00108725
-0.000546014
3.28146e-05
0.000709896
0.00146448
0.00212954
0.00234106
-0.00396683
-0.00411165
-0.00453274
-0.0050232
-0.00536424
-0.00552559
-0.00549321
-0.00495533
-0.00416468
-0.00336121
-0.00263694
-0.00200961
-0.00142658
-0.000758223
6.77624e-05
0.00103801
0.00207737
0.00304939
0.00373575
0.00379337
-0.00463016
-0.00467598
-0.00501308
-0.00536892
-0.00545527
-0.00511006
-0.00460927
-0.0040846
-0.00358311
-0.00309971
-0.00255023
-0.00188227
-0.00107592
-0.000131168
0.000933256
0.0020831
0.00324369
0.00427102
0.00492614
0.0048715
-0.00546496
-0.00554389
-0.00535215
-0.00510931
-0.00484949
-0.00453893
-0.00419624
-0.00385343
-0.00346091
-0.00296264
-0.00230964
-0.00148181
-0.000507519
0.0005739
0.00174091
0.00295695
0.00414113
0.00514738
0.00574955
0.00561551
-0.00615723
-0.00608672
-0.00560503
-0.00502306
-0.0045641
-0.00423833
-0.00395332
-0.00363436
-0.00321656
-0.0026463
-0.00190554
-0.00100405
3.24663e-05
0.00117491
0.00238989
0.00362795
0.00480659
0.00578551
0.0063427
0.0061487
-0.00668428
-0.00651084
-0.00589783
-0.00512929
-0.00447305
-0.00401136
-0.00366834
-0.00331396
-0.00286299
-0.00226805
-0.00150858
-0.000586006
0.000478324
0.00165294
0.0028962
0.00415029
0.00532661
0.00628394
0.00680287
0.00655827
-0.00713705
-0.00688772
-0.00616963
-0.00525127
-0.00442272
-0.00381491
-0.00337575
-0.00298061
-0.00252028
-0.00192441
-0.00116208
-0.000231617
0.000849338
0.00204602
0.00330975
0.00457487
0.00574732
0.00668459
0.00716971
0.00688208
-0.00752286
-0.00722059
-0.00639182
-0.00535298
-0.00439081
-0.00365706
-0.00313129
-0.00269455
-0.00222181
-0.00162684
-0.000865772
7.01193e-05
0.00116256
0.00237318
0.00364862
0.00491825
0.00608439
0.00700357
0.00746065
0.00713858
-0.00782829
-0.00747367
-0.00657939
-0.00544698
-0.00437984
-0.00354616
-0.00294533
-0.00246555
-0.00197474
-0.00137469
-0.000613034
0.000323341
0.00141873
0.00263477
0.00391442
0.00518404
0.00634354
0.00724844
0.00768456
0.0073372
-0.00805659
-0.00767295
-0.0067264
-0.00553133
-0.00439317
-0.00348849
-0.00282733
-0.00230352
-0.00178336
-0.00116283
-0.000387275
0.000556403
0.00165247
0.00286451
0.00413986
0.00540375
0.00655463
0.00744722
0.00786761
0.00750197
-0.00819964
-0.00780728
-0.00683775
-0.00561029
-0.00443553
-0.00349249
-0.00279461
-0.00223772
-0.00169083
-0.00104942
-0.000254509
0.000708814
0.0018224
0.00304595
0.00432332
0.00558245
0.00672505
0.00760777
0.00801977
0.00764733
0.00716516
0.00227361
-0.0050879
-0.0102781
-0.011345
-0.0101004
-0.00863029
-0.007619
-0.00703153
-0.00671486
-0.00656543
-0.00651863
-0.00653076
-0.00657641
-0.00664252
-0.00672204
-0.00681146
-0.0069073
-0.00700349
-0.00709521
-0.00718379
-0.00727412
-0.00736839
-0.007465
-0.00756223
-0.00766017
-0.00775915
-0.00785846
-0.0079571
-0.00805487
-0.00815219
-0.00824898
-0.00834444
-0.00843764
-0.00852866
-0.00861838
-0.00870755
-0.00879607
-0.00888317
-0.00896834
-0.00905163
-0.00913354
-0.00921425
-0.00929351
-0.00937091
-0.00944642
-0.00952017
-0.00959252
-0.00966347
-0.00973305
-0.00980123
-0.00986817
-0.00993399
-0.00999902
-0.0100633
-0.0101268
-0.0101892
-0.0102504
-0.0103107
-0.0103704
-0.0104297
-0.0104882
-0.0105457
-0.0106024
-0.0106588
-0.0107151
-0.0107711
-0.0108266
-0.010882
-0.0109374
-0.010993
-0.0110484
-0.0111037
-0.011159
-0.0112145
-0.0112701
-0.0113258
-0.0113813
-0.0114367
-0.0114921
-0.0115475
-0.011603
-0.0116584
-0.0117137
-0.0117688
-0.0118239
-0.011879
-0.0119341
-0.011989
-0.012044
-0.0120989
-0.0121538
-0.0122084
-0.0122629
-0.0123173
-0.0123718
-0.012426
-0.0124801
-0.0125341
-0.0125882
-0.0126423
-0.0126964
-0.0127507
-0.0128049
-0.0128595
-0.0129139
-0.0129687
-0.0130234
-0.0130785
-0.0131334
-0.0131886
-0.0132435
-0.0132987
-0.0133538
-0.013409
-0.0134643
-0.0135194
-0.0135747
-0.0136298
-0.0136853
-0.0137405
-0.0137961
-0.0138512
-0.0139066
-0.0139619
-0.0140175
-0.014073
-0.0141284
-0.0141841
-0.0142396
-0.0142957
-0.0143514
-0.0144076
-0.0144633
-0.0145196
-0.0145755
-0.0146319
-0.0146881
-0.0147444
-0.0148007
-0.0148568
-0.0149136
-0.0149698
-0.0150268
-0.0150828
-0.0151397
-0.0151962
-0.0152532
-0.01531
-0.0153666
-0.0154239
-0.0154805
-0.0155383
-0.0155947
-0.0156522
-0.0157089
-0.0157666
-0.0158237
-0.0158805
-0.0159382
-0.0159952
-0.0160537
-0.0161103
-0.0161688
-0.016226
-0.0162844
-0.0163422
-0.0163995
-0.0164585
-0.0165155
-0.0165749
-0.0166317
-0.0166907
-0.0167487
-0.0168067
-0.0168658
-0.0169224
-0.0169828
-0.0170393
-0.0170995
-0.017157
-0.017216
-0.0172756
-0.0173325
-0.0173933
-0.0174494
-0.0175097
-0.0175672
-0.017624
-0.0176842
-0.0177378
-0.0177989
-0.0178507
-0.0179087
-0.0179604
-0.0180107
-0.0180593
-0.0181003
-0.0181321
-0.0181712
0.0064374
0.00209471
-0.00500932
-0.0101432
-0.0112653
-0.0100623
-0.00860623
-0.00760216
-0.00701953
-0.00670585
-0.00655822
-0.00651258
-0.00652551
-0.00657175
-0.0066383
-0.00671817
-0.00680789
-0.006904
-0.00700043
-0.00709237
-0.00718115
-0.00727165
-0.00736609
-0.00746285
-0.00756022
-0.00765829
-0.0077574
-0.00785682
-0.00795556
-0.00805342
-0.00815082
-0.00824769
-0.00834322
-0.00843649
-0.00852756
-0.00861734
-0.00870655
-0.00879512
-0.00888227
-0.00896747
-0.0090508
-0.00913274
-0.00921348
-0.00929277
-0.00937021
-0.00944574
-0.00951952
-0.00959189
-0.00966286
-0.00973247
-0.00980067
-0.00986763
-0.00993347
-0.00999851
-0.0100628
-0.0101263
-0.0101887
-0.01025
-0.0103103
-0.01037
-0.0104293
-0.0104878
-0.0105453
-0.0106021
-0.0106585
-0.0107147
-0.0107707
-0.0108263
-0.0108817
-0.0109371
-0.0109927
-0.0110481
-0.0111035
-0.0111587
-0.0112142
-0.0112698
-0.0113255
-0.0113811
-0.0114365
-0.0114918
-0.0115473
-0.0116028
-0.0116582
-0.0117135
-0.0117686
-0.0118237
-0.0118788
-0.0119339
-0.0119888
-0.0120439
-0.0120988
-0.0121536
-0.0122082
-0.0122627
-0.0123172
-0.0123716
-0.0124258
-0.0124799
-0.012534
-0.012588
-0.0126422
-0.0126963
-0.0127505
-0.0128048
-0.0128593
-0.0129138
-0.0129686
-0.0130233
-0.0130784
-0.0131333
-0.0131885
-0.0132434
-0.0132986
-0.0133537
-0.0134089
-0.0134642
-0.0135193
-0.0135746
-0.0136298
-0.0136852
-0.0137404
-0.013796
-0.0138511
-0.0139065
-0.0139618
-0.0140174
-0.0140729
-0.0141284
-0.014184
-0.0142396
-0.0142956
-0.0143513
-0.0144076
-0.0144632
-0.0145196
-0.0145755
-0.0146318
-0.014688
-0.0147443
-0.0148006
-0.0148567
-0.0149136
-0.0149698
-0.0150267
-0.0150827
-0.0151397
-0.0151961
-0.0152532
-0.0153099
-0.0153665
-0.0154238
-0.0154805
-0.0155383
-0.0155946
-0.0156522
-0.0157088
-0.0157665
-0.0158237
-0.0158805
-0.0159382
-0.0159951
-0.0160537
-0.0161102
-0.0161687
-0.0162259
-0.0162843
-0.0163422
-0.0163995
-0.0164584
-0.0165155
-0.0165749
-0.0166317
-0.0166907
-0.0167486
-0.0168067
-0.0168658
-0.0169224
-0.0169828
-0.0170393
-0.0170995
-0.017157
-0.017216
-0.0172756
-0.0173324
-0.0173932
-0.0174494
-0.0175096
-0.0175672
-0.017624
-0.0176842
-0.0177378
-0.0177989
-0.0178507
-0.0179086
-0.0179604
-0.0180107
-0.0180593
-0.0181003
-0.0181321
-0.0181711
0.00567064
0.00191428
-0.00483704
-0.00988877
-0.0111215
-0.0100054
-0.00857481
-0.00757778
-0.00700054
-0.00669157
-0.00654744
-0.00650421
-0.00651877
-0.00656616
-0.00663353
-0.00671398
-0.00680411
-0.00690054
-0.00699724
-0.00708941
-0.0071784
-0.0072691
-0.00736372
-0.00746063
-0.00755815
-0.00765635
-0.00775559
-0.00785513
-0.00795398
-0.00805195
-0.00814944
-0.00824639
-0.00834199
-0.00843533
-0.00852647
-0.0086163
-0.00870557
-0.00879418
-0.00888137
-0.00896661
-0.00904998
-0.00913196
-0.00921273
-0.00929205
-0.00936952
-0.00944508
-0.00951889
-0.00959128
-0.00966228
-0.00973191
-0.00980012
-0.0098671
-0.00993296
-0.00999802
-0.0100623
-0.0101259
-0.0101883
-0.0102495
-0.0103099
-0.0103696
-0.0104289
-0.0104874
-0.0105449
-0.0106017
-0.0106581
-0.0107144
-0.0107704
-0.010826
-0.0108814
-0.0109368
-0.0109924
-0.0110478
-0.0111032
-0.0111584
-0.0112139
-0.0112696
-0.0113253
-0.0113808
-0.0114363
-0.0114916
-0.0115471
-0.0116026
-0.011658
-0.0117133
-0.0117684
-0.0118235
-0.0118786
-0.0119337
-0.0119887
-0.0120437
-0.0120986
-0.0121535
-0.012208
-0.0122626
-0.012317
-0.0123715
-0.0124257
-0.0124798
-0.0125338
-0.0125879
-0.012642
-0.0126961
-0.0127504
-0.0128047
-0.0128592
-0.0129137
-0.0129685
-0.0130232
-0.0130783
-0.0131332
-0.0131884
-0.0132433
-0.0132985
-0.0133536
-0.0134088
-0.0134641
-0.0135192
-0.0135745
-0.0136297
-0.0136852
-0.0137404
-0.0137959
-0.013851
-0.0139065
-0.0139617
-0.0140173
-0.0140728
-0.0141283
-0.014184
-0.0142395
-0.0142956
-0.0143512
-0.0144075
-0.0144632
-0.0145195
-0.0145754
-0.0146318
-0.014688
-0.0147442
-0.0148006
-0.0148567
-0.0149135
-0.0149697
-0.0150267
-0.0150827
-0.0151396
-0.0151961
-0.0152531
-0.0153099
-0.0153665
-0.0154237
-0.0154804
-0.0155382
-0.0155946
-0.0156521
-0.0157088
-0.0157665
-0.0158236
-0.0158804
-0.0159381
-0.0159951
-0.0160537
-0.0161102
-0.0161687
-0.0162259
-0.0162843
-0.0163421
-0.0163995
-0.0164584
-0.0165154
-0.0165749
-0.0166316
-0.0166906
-0.0167486
-0.0168066
-0.0168657
-0.0169223
-0.0169828
-0.0170393
-0.0170995
-0.017157
-0.0172159
-0.0172756
-0.0173324
-0.0173932
-0.0174494
-0.0175096
-0.0175671
-0.017624
-0.0176842
-0.0177378
-0.0177989
-0.0178507
-0.0179086
-0.0179604
-0.0180107
-0.0180593
-0.0181002
-0.0181321
-0.0181711
0.00494292
0.00175494
-0.00459655
-0.00955185
-0.0109212
-0.00992446
-0.0085298
-0.00754054
-0.00697018
-0.00666875
-0.00653071
-0.00649171
-0.00650912
-0.0065585
-0.00662733
-0.0067088
-0.00679961
-0.00689648
-0.0069935
-0.00708596
-0.00717522
-0.00726617
-0.007361
-0.0074581
-0.00755578
-0.00765413
-0.00775351
-0.0078532
-0.00795219
-0.00805028
-0.00814789
-0.00824495
-0.00834064
-0.00843406
-0.00852528
-0.00861518
-0.00870452
-0.00879318
-0.00888042
-0.00896571
-0.00904912
-0.00913113
-0.00921194
-0.0092913
-0.0093688
-0.00944439
-0.00951822
-0.00959065
-0.00966167
-0.00973132
-0.00979956
-0.00986656
-0.00993244
-0.00999752
-0.0100618
-0.0101254
-0.0101878
-0.0102491
-0.0103094
-0.0103692
-0.0104285
-0.010487
-0.0105446
-0.0106013
-0.0106578
-0.0107141
-0.0107701
-0.0108257
-0.0108811
-0.0109365
-0.0109921
-0.0110475
-0.0111029
-0.0111582
-0.0112137
-0.0112693
-0.0113251
-0.0113806
-0.011436
-0.0114914
-0.0115468
-0.0116024
-0.0116578
-0.011713
-0.0117682
-0.0118233
-0.0118785
-0.0119336
-0.0119885
-0.0120435
-0.0120984
-0.0121533
-0.0122079
-0.0122624
-0.0123169
-0.0123713
-0.0124255
-0.0124797
-0.0125337
-0.0125878
-0.0126419
-0.012696
-0.0127503
-0.0128045
-0.0128591
-0.0129136
-0.0129683
-0.0130231
-0.0130782
-0.0131331
-0.0131882
-0.0132432
-0.0132984
-0.0133535
-0.0134087
-0.013464
-0.0135191
-0.0135745
-0.0136296
-0.0136851
-0.0137403
-0.0137958
-0.0138509
-0.0139064
-0.0139617
-0.0140172
-0.0140727
-0.0141282
-0.0141839
-0.0142394
-0.0142955
-0.0143512
-0.0144074
-0.0144631
-0.0145194
-0.0145753
-0.0146317
-0.0146879
-0.0147442
-0.0148005
-0.0148566
-0.0149135
-0.0149697
-0.0150266
-0.0150826
-0.0151396
-0.015196
-0.0152531
-0.0153098
-0.0153664
-0.0154237
-0.0154804
-0.0155382
-0.0155945
-0.0156521
-0.0157087
-0.0157665
-0.0158236
-0.0158804
-0.0159381
-0.015995
-0.0160536
-0.0161101
-0.0161687
-0.0162259
-0.0162842
-0.0163421
-0.0163994
-0.0164583
-0.0165154
-0.0165748
-0.0166316
-0.0166906
-0.0167486
-0.0168066
-0.0168657
-0.0169223
-0.0169827
-0.0170392
-0.0170994
-0.0171569
-0.0172159
-0.0172755
-0.0173324
-0.0173932
-0.0174494
-0.0175096
-0.0175671
-0.017624
-0.0176842
-0.0177377
-0.0177989
-0.0178506
-0.0179086
-0.0179604
-0.0180107
-0.0180593
-0.0181002
-0.0181321
-0.0181711
0.00424548
0.00158617
-0.00433715
-0.00918462
-0.0106953
-0.00983201
-0.00847748
-0.0074935
-0.00692912
-0.00663672
-0.00650682
-0.00647372
-0.00649521
-0.00654757
-0.00661865
-0.00670179
-0.0067937
-0.00689123
-0.00698868
-0.00708152
-0.00717116
-0.00726245
-0.00735756
-0.00745487
-0.00755274
-0.00765127
-0.00775083
-0.00785069
-0.00794987
-0.00804815
-0.00814591
-0.00824311
-0.00833892
-0.00843246
-0.00852379
-0.00861381
-0.00870324
-0.00879198
-0.00887928
-0.00896462
-0.00904809
-0.00913016
-0.00921101
-0.00929041
-0.00936795
-0.00944358
-0.00951745
-0.00958991
-0.00966096
-0.00973064
-0.00979891
-0.00986594
-0.00993185
-0.00999695
-0.0100613
-0.0101249
-0.0101873
-0.0102486
-0.010309
-0.0103688
-0.010428
-0.0104866
-0.0105441
-0.0106009
-0.0106574
-0.0107137
-0.0107697
-0.0108253
-0.0108808
-0.0109362
-0.0109918
-0.0110472
-0.0111026
-0.0111579
-0.0112134
-0.011269
-0.0113248
-0.0113803
-0.0114358
-0.0114911
-0.0115466
-0.0116021
-0.0116576
-0.0117128
-0.0117679
-0.0118231
-0.0118783
-0.0119334
-0.0119883
-0.0120433
-0.0120982
-0.0121531
-0.0122077
-0.0122623
-0.0123167
-0.0123712
-0.0124254
-0.0124795
-0.0125335
-0.0125876
-0.0126417
-0.0126959
-0.0127501
-0.0128044
-0.012859