/*--------------------------------*- C++ -*----------------------------------*\
| =========                 |                                                 |
| \\      /  F ield         | OpenFOAM: The Open Source CFD Toolbox           |
|  \\    /   O peration     | Version:  v2012                                 |
|   \\  /    A nd           | Website:  www.openfoam.com                      |
|    \\/     M anipulation  |                                                 |
\*---------------------------------------------------------------------------*/
FoamFile
{
    version     2.0;
    format      ascii;
    class       surfaceScalarField;
    location    "4.65";
    object      phi;
}
// * * * * * * * * * * * * * * * * * * * * * * * * * * * * * * * * * * * * * //

dimensions      [0 3 -1 0 0 0 0];
oriented        oriented;


internalField   nonuniform List<scalar> 
34900
(
1.17154e-06
1.20962e-07
1.1665e-06
-1.89618e-07
1.17e-06
2.29333e-07
1.15814e-06
-4.42197e-07
1.16973e-06
3.87282e-07
1.15311e-06
-4.05261e-07
1.16833e-06
3.13872e-07
1.15545e-06
-5.17557e-08
1.16556e-06
1.20809e-07
1.15547e-06
1.01002e-07
1.16266e-06
6.57336e-08
1.15174e-06
6.93479e-08
1.15799e-06
7.08374e-08
1.14575e-06
3.4962e-08
1.15209e-06
5.83608e-08
1.13881e-06
2.31068e-08
1.1451e-06
6.19661e-08
1.13078e-06
1.79039e-08
1.1325e-06
8.05782e-08
2.19798e-08
1.0948e-06
1.22542e-06
1.19807e-07
1.2218e-06
-1.85997e-07
1.22293e-06
2.28203e-07
1.21186e-06
-4.31134e-07
1.22064e-06
3.78505e-07
1.20603e-06
-3.90654e-07
1.2173e-06
3.02605e-07
1.21004e-06
-4.44947e-08
1.21565e-06
1.152e-07
1.21283e-06
1.03818e-07
1.21435e-06
6.42127e-08
1.21148e-06
7.22162e-08
1.20956e-06
7.27636e-08
1.20816e-06
3.63628e-08
1.20203e-06
6.44919e-08
1.20463e-06
2.05075e-08
1.19189e-06
7.47051e-08
1.20022e-06
9.57227e-09
1.17457e-06
1.0623e-07
1.82026e-08
1.17834e-06
1.28093e-06
1.21664e-07
1.27979e-06
-1.84856e-07
1.27844e-06
2.29552e-07
1.2689e-06
-4.21594e-07
1.2743e-06
3.73103e-07
1.26289e-06
-3.79243e-07
1.26868e-06
2.96811e-07
1.26881e-06
-4.46245e-08
1.26808e-06
1.15933e-07
1.27356e-06
9.83365e-08
1.26867e-06
6.91006e-08
1.2736e-06
6.7287e-08
1.26533e-06
8.10332e-08
1.27065e-06
3.10493e-08
1.25964e-06
7.54984e-08
1.26552e-06
1.46225e-08
1.25333e-06
8.69011e-08
1.25704e-06
5.86545e-09
1.24411e-06
1.19153e-07
3.18691e-08
1.23045e-06
1.339e-06
1.2677e-07
1.34089e-06
-1.86751e-07
1.33753e-06
2.32915e-07
1.33043e-06
-4.14497e-07
1.33288e-06
3.70649e-07
1.32548e-06
-3.71835e-07
1.32606e-06
2.96227e-07
1.33243e-06
-5.09955e-08
1.32724e-06
1.21128e-07
1.33671e-06
8.88583e-08
1.32999e-06
7.58282e-08
1.33628e-06
6.09973e-08
1.32884e-06
8.84682e-08
1.33299e-06
2.68973e-08
1.32543e-06
8.30638e-08
1.32735e-06
1.26964e-08
1.32125e-06
9.30071e-08
1.31893e-06
8.18554e-09
1.31329e-06
1.24794e-07
4.94594e-08
1.2957e-06
1.40081e-06
1.34311e-07
1.40504e-06
-1.90974e-07
1.40107e-06
2.36885e-07
1.39626e-06
-4.09686e-07
1.39732e-06
3.69589e-07
1.39285e-06
-3.67365e-07
1.39098e-06
2.98095e-07
1.39972e-06
-5.97403e-08
1.39422e-06
1.2663e-07
1.40305e-06
8.00341e-08
1.39838e-06
8.04959e-08
1.40258e-06
5.68e-08
1.39845e-06
9.25951e-08
1.40006e-06
2.52844e-08
1.39576e-06
8.73633e-08
1.39523e-06
1.32251e-08
1.39171e-06
9.65277e-08
1.38727e-06
1.26296e-08
1.38359e-06
1.28475e-07
6.70664e-08
1.36598e-06
1.46739e-06
1.42598e-07
1.47236e-06
-1.95948e-07
1.46942e-06
2.39828e-07
1.46594e-06
-4.06205e-07
1.46715e-06
3.68377e-07
1.46379e-06
-3.64003e-07
1.46218e-06
2.99704e-07
1.46995e-06
-6.75087e-08
1.46671e-06
1.29872e-07
1.47319e-06
7.35494e-08
1.47113e-06
8.25577e-08
1.47349e-06
5.44361e-08
1.47157e-06
9.45207e-08
1.47196e-06
2.48922e-08
1.4691e-06
9.02211e-08
1.46767e-06
1.46555e-08
1.46518e-06
9.90209e-08
1.45944e-06
1.83663e-08
1.45722e-06
1.30701e-07
8.47477e-08
1.43954e-06
1.53902e-06
1.49795e-07
1.54322e-06
-2.00144e-07
1.54229e-06
2.40755e-07
1.53912e-06
-4.03042e-07
1.54121e-06
3.66294e-07
1.53756e-06
-3.60353e-07
1.53734e-06
2.99919e-07
1.54274e-06
-7.29079e-08
1.54196e-06
1.30657e-07
1.54652e-06
6.89852e-08
1.54609e-06
8.29865e-08
1.54772e-06
5.28104e-08
1.54685e-06
9.53904e-08
1.54687e-06
2.48731e-08
1.54484e-06
9.22493e-08
1.54283e-06
1.66676e-08
1.54132e-06
1.00527e-07
1.53427e-06
2.5417e-08
1.53348e-06
1.31487e-07
1.02153e-07
1.51608e-06
1.61518e-06
1.54745e-07
1.61782e-06
-2.02788e-07
1.61893e-06
2.39652e-07
1.61551e-06
-3.99621e-07
1.61845e-06
3.63349e-07
1.61393e-06
-3.55832e-07
1.61501e-06
2.98838e-07
1.61807e-06
-7.59717e-08
1.61893e-06
1.29799e-07
1.62235e-06
6.55705e-08
1.62279e-06
8.25483e-08
1.62423e-06
5.13611e-08
1.62404e-06
9.55822e-08
1.6239e-06
2.5013e-08
1.62272e-06
9.34273e-08
1.62012e-06
1.92739e-08
1.61974e-06
1.0091e-07
1.61149e-06
3.36616e-08
1.61189e-06
1.31091e-07
1.18673e-07
1.59537e-06
1.69504e-06
1.57284e-07
1.69617e-06
-2.03921e-07
1.69868e-06
2.37142e-07
1.69488e-06
-3.95827e-07
1.69849e-06
3.59743e-07
1.69307e-06
-3.50412e-07
1.69509e-06
2.96821e-07
1.69632e-06
-7.7205e-08
1.69811e-06
1.28006e-07
1.70078e-06
6.28985e-08
1.70179e-06
8.15388e-08
1.70315e-06
5.0009e-08
1.70361e-06
9.51211e-08
1.70327e-06
2.53444e-08
1.70306e-06
9.36417e-08
1.69982e-06
2.25167e-08
1.70059e-06
1.00135e-07
1.6914e-06
4.28579e-08
1.6926e-06
1.29888e-07
1.33741e-07
1.67753e-06
1.77806e-06
1.57946e-07
1.77815e-06
-2.04008e-07
1.78133e-06
2.33957e-07
1.77726e-06
-3.91754e-07
1.78147e-06
3.55535e-07
1.77534e-06
-3.4428e-07
1.77819e-06
2.93972e-07
1.77805e-06
-7.70661e-08
1.78046e-06
1.25593e-07
1.78248e-06
6.08808e-08
1.78399e-06
8.00229e-08
1.78512e-06
4.88827e-08
1.78627e-06
9.39702e-08
1.78562e-06
2.59949e-08
1.78643e-06
9.28284e-08
1.78251e-06
2.64371e-08
1.78435e-06
9.83008e-08
1.77452e-06
5.26869e-08
1.77606e-06
1.28344e-07
1.46887e-07
1.76292e-06
1.86426e-06
1.57439e-07
1.86377e-06
-2.03527e-07
1.86713e-06
2.30596e-07
1.86288e-06
-3.87501e-07
1.86775e-06
3.50662e-07
1.86111e-06
-3.37631e-07
1.86493e-06
2.90145e-07
1.86371e-06
-7.5847e-08
1.86673e-06
1.22578e-07
1.86805e-06
5.95613e-08
1.87008e-06
7.79864e-08
1.8708e-06
4.81667e-08
1.87266e-06
9.21071e-08
1.87154e-06
2.71219e-08
1.87336e-06
9.10049e-08
1.86876e-06
3.10376e-08
1.8714e-06
9.56557e-08
1.86133e-06
6.27655e-08
1.86269e-06
1.2698e-07
1.57772e-07
1.8518e-06
1.95397e-06
1.56308e-07
1.95322e-06
-2.02779e-07
1.95653e-06
2.27283e-07
1.95212e-06
-3.83087e-07
1.95773e-06
3.45049e-07
1.95068e-06
-3.30575e-07
1.95568e-06
2.85141e-07
1.95354e-06
-7.37031e-08
1.95727e-06
1.1885e-07
1.95782e-06
5.9006e-08
1.96043e-06
7.53787e-08
1.96057e-06
4.80272e-08
1.96315e-06
8.95273e-08
1.96142e-06
2.8853e-08
1.96414e-06
8.82775e-08
1.95895e-06
3.62368e-08
1.96203e-06
9.25743e-08
1.95212e-06
7.26745e-08
1.95283e-06
1.26269e-07
1.66252e-07
1.94435e-06
2.04764e-06
1.54856e-07
2.04676e-06
-2.01895e-07
2.05e-06
2.24039e-07
2.04537e-06
-3.78456e-07
2.05175e-06
3.38666e-07
2.0443e-06
-3.23121e-07
2.05061e-06
2.78834e-07
2.0476e-06
-7.06998e-08
2.05218e-06
1.14272e-07
2.05192e-06
5.92671e-08
2.05517e-06
7.21249e-08
2.05463e-06
4.85739e-08
2.05791e-06
8.62424e-08
2.05553e-06
3.12335e-08
2.05897e-06
8.48373e-08
2.05336e-06
4.18469e-08
2.05643e-06
8.9503e-08
2.04709e-06
8.20115e-08
2.04682e-06
1.26539e-07
1.72409e-07
2.04067e-06
2.14565e-06
1.5321e-07
2.14466e-06
-2.00908e-07
2.14791e-06
2.20787e-07
2.14297e-06
-3.73513e-07
2.15013e-06
3.31509e-07
2.1422e-06
-3.15197e-07
2.14984e-06
2.712e-07
2.14598e-06
-6.68441e-08
2.15152e-06
1.08729e-07
2.15041e-06
6.03804e-08
2.15439e-06
6.81432e-08
2.15312e-06
4.98473e-08
2.15707e-06
8.22916e-08
2.15411e-06
3.41962e-08
2.15799e-06
8.09514e-08
2.15225e-06
4.75864e-08
2.15487e-06
8.68909e-08
2.14643e-06
9.04456e-08
2.14504e-06
1.27928e-07
1.76528e-07
2.14092e-06
2.24828e-06
1.51415e-07
2.24718e-06
-1.99807e-07
2.25055e-06
2.17416e-07
2.2452e-06
-3.68158e-07
2.25314e-06
3.23571e-07
2.24463e-06
-3.06693e-07
2.25357e-06
2.62266e-07
2.24883e-06
-6.21041e-08
2.25542e-06
1.02136e-07
2.25343e-06
6.23679e-08
2.2582e-06
6.33707e-08
2.25624e-06
5.18138e-08
2.26076e-06
7.77673e-08
2.25741e-06
3.75527e-08
2.26141e-06
7.69496e-08
2.25587e-06
5.31255e-08
2.25764e-06
8.5118e-08
2.25033e-06
9.77614e-08
2.24787e-06
1.30388e-07
1.79024e-07
2.24537e-06
2.35581e-06
1.49481e-07
2.35457e-06
-1.98567e-07
2.35817e-06
2.13816e-07
2.35231e-06
-3.62301e-07
2.36106e-06
3.14824e-07
2.35186e-06
-2.97491e-07
2.36205e-06
2.52068e-07
2.35638e-06
-5.64253e-08
2.36407e-06
9.44378e-08
2.36121e-06
6.52322e-08
2.36679e-06
5.77933e-08
2.36424e-06
5.43596e-08
2.36917e-06
7.28382e-08
2.36571e-06
4.10097e-08
2.36947e-06
7.3195e-08
2.36444e-06
5.81543e-08
2.36513e-06
8.44242e-08
2.35899e-06
1.03907e-07
2.35567e-06
1.33707e-07
1.80365e-07
2.35433e-06
2.46847e-06
1.47406e-07
2.46705e-06
-1.97149e-07
2.47098e-06
2.0989e-07
2.46454e-06
-3.5586e-07
2.47415e-06
3.05212e-07
2.46414e-06
-2.87479e-07
2.47559e-06
2.40616e-07
2.46891e-06
-4.97477e-08
2.47774e-06
8.56067e-08
2.47404e-06
6.8941e-08
2.48036e-06
5.14707e-08
2.47744e-06
5.72819e-08
2.48251e-06
6.77621e-08
2.47932e-06
4.42046e-08
2.48247e-06
7.00405e-08
2.47818e-06
6.24472e-08
2.47774e-06
8.48589e-08
2.47263e-06
1.0902e-07
2.46879e-06
1.37546e-07
1.81002e-07
2.46815e-06
2.58652e-06
1.45185e-07
2.58487e-06
-1.95509e-07
2.58922e-06
2.05542e-07
2.58212e-06
-3.48762e-07
2.59268e-06
2.9466e-07
2.58175e-06
-2.76556e-07
2.59447e-06
2.27898e-07
2.58675e-06
-4.20247e-08
2.5967e-06
7.56546e-08
2.59224e-06
7.34062e-08
2.59915e-06
4.45532e-08
2.59615e-06
6.02856e-08
2.60104e-06
6.28763e-08
2.59849e-06
4.67532e-08
2.60075e-06
6.77732e-08
2.59728e-06
6.59169e-08
2.59586e-06
8.62783e-08
2.59151e-06
1.13375e-07
2.58753e-06
1.41529e-07
1.81319e-07
2.58721e-06
2.71021e-06
1.42807e-07
2.70828e-06
-1.93586e-07
2.71315e-06
2.00674e-07
2.70532e-06
-3.40928e-07
2.7169e-06
2.83078e-07
2.70498e-06
-2.64632e-07
2.71898e-06
2.13891e-07
2.7102e-06
-3.3242e-08
2.72121e-06
6.46482e-08
2.71615e-06
7.84617e-08
2.72341e-06
3.72926e-08
2.72071e-06
6.29908e-08
2.72503e-06
5.85578e-08
2.72345e-06
4.83248e-08
2.72468e-06
6.65466e-08
2.72195e-06
6.86485e-08
2.71983e-06
8.84005e-08
2.71593e-06
1.17271e-07
2.71211e-06
1.45348e-07
1.81582e-07
2.71185e-06
2.83982e-06
1.40258e-07
2.83754e-06
-1.91305e-07
2.84304e-06
1.95175e-07
2.83438e-06
-3.32272e-07
2.84709e-06
2.70368e-07
2.8341e-06
-2.51639e-07
2.8494e-06
1.98588e-07
2.8396e-06
-2.34394e-08
2.85151e-06
5.27299e-08
2.84613e-06
8.38446e-08
2.85339e-06
3.00393e-08
2.85141e-06
6.49635e-08
2.85481e-06
5.51597e-08
2.85442e-06
4.87178e-08
2.85464e-06
6.63218e-08
2.85239e-06
7.09029e-08
2.84989e-06
9.08938e-08
2.84625e-06
1.2092e-07
2.84276e-06
1.48834e-07
1.81923e-07
2.84242e-06
2.97563e-06
1.3752e-07
2.97291e-06
-1.88578e-07
2.97916e-06
1.88923e-07
2.96959e-06
-3.22706e-07
2.98352e-06
2.56439e-07
2.96942e-06
-2.37536e-07
2.98599e-06
1.8202e-07
2.97528e-06
-1.27308e-08
2.98787e-06
4.0134e-08
2.98253e-06
8.91916e-08
2.98935e-06
2.3222e-08
2.98855e-06
6.5761e-08
2.99076e-06
5.29479e-08
2.99156e-06
4.79144e-08
2.99104e-06
6.68436e-08
2.98888e-06
7.3066e-08
2.98628e-06
9.34892e-08
2.98281e-06
1.24391e-07
2.97969e-06
1.51957e-07
1.82371e-07
2.97924e-06
3.11795e-06
1.34574e-07
3.11468e-06
-1.85301e-07
3.12182e-06
1.81783e-07
3.11125e-06
-3.12145e-07
3.12648e-06
2.41215e-07
3.11127e-06
-2.22327e-07
3.12901e-06
1.64278e-07
3.1176e-06
-1.32396e-09
3.13054e-06
2.71988e-08
3.12569e-06
9.40464e-08
3.1316e-06
1.731e-08
3.13236e-06
6.49955e-08
3.13327e-06
5.20362e-08
3.13509e-06
4.60941e-08
3.13426e-06
6.7683e-08
3.13178e-06
7.55369e-08
3.1292e-06
9.60747e-08
3.12591e-06
1.27683e-07
3.12314e-06
1.54719e-07
1.82914e-07
3.1226e-06
3.26708e-06
1.31399e-07
3.26314e-06
-1.81359e-07
3.27131e-06
1.73614e-07
3.25969e-06
-3.00521e-07
3.27624e-06
2.2466e-07
3.26e-06
-2.06085e-07
3.27873e-06
1.45544e-07
3.26695e-06
1.04602e-08
3.27977e-06
1.43758e-08
3.27595e-06
9.78732e-08
3.28048e-06
1.27714e-08
3.28309e-06
6.2393e-08
3.28277e-06
5.23539e-08
3.28529e-06
4.35769e-08
3.28464e-06
6.8332e-08
3.2816e-06
7.85756e-08
3.27887e-06
9.88078e-08
3.27562e-06
1.30933e-07
3.27344e-06
1.56895e-07
1.83679e-07
3.27267e-06
3.42335e-06
1.27978e-07
3.41863e-06
-1.76639e-07
3.42796e-06
1.64286e-07
3.41524e-06
-2.87798e-07
3.4331e-06
2.068e-07
3.41599e-06
-1.88975e-07
3.43542e-06
1.26112e-07
3.42371e-06
2.21746e-08
3.43586e-06
2.21992e-09
3.43364e-06
1.00093e-07
3.43639e-06
1.00228e-08
3.44095e-06
5.78345e-08
3.43964e-06
5.3666e-08
3.44248e-06
4.07315e-08
3.4426e-06
6.82179e-08
3.43922e-06
8.19565e-08
3.43558e-06
1.02443e-07
3.43161e-06
1.34899e-07
3.43029e-06
1.58216e-07
1.84738e-07
3.42923e-06
3.58709e-06
1.24297e-07
3.58149e-06
-1.71036e-07
3.59208e-06
1.53695e-07
3.57828e-06
-2.73997e-07
3.59734e-06
1.87738e-07
3.57963e-06
-1.71267e-07
3.59936e-06
1.0639e-07
3.58825e-06
3.32822e-08
3.59916e-06
-8.69323e-09
3.59904e-06
1.00219e-07
3.59978e-06
9.27423e-09
3.60614e-06
5.14756e-08
3.6043e-06
5.55052e-08
3.60705e-06
3.79877e-08
3.60862e-06
6.66487e-08
3.60796e-06
8.26113e-08
3.6097e-06
1.00702e-07
3.60424e-06
1.40357e-07
3.58792e-06
1.74539e-07
1.81239e-07
3.59142e-06
3.75865e-06
1.20349e-07
3.75209e-06
-1.64471e-07
3.76399e-06
1.41793e-07
3.74921e-06
-2.59216e-07
3.76927e-06
1.67677e-07
3.75135e-06
-1.5335e-07
3.77087e-06
8.68745e-08
3.76093e-06
4.32233e-08
3.7701e-06
-1.78666e-08
3.77231e-06
9.80096e-08
3.77122e-06
1.03625e-08
3.77885e-06
4.38427e-08
3.77733e-06
5.70291e-08
3.77967e-06
3.56497e-08
3.78325e-06
6.30721e-08
3.78647e-06
7.93818e-08
3.79279e-06
9.43917e-08
3.80237e-06
1.30774e-07
3.81463e-06
1.62275e-07
2.04253e-07
3.79162e-06
3.9384e-06
1.16137e-07
3.93083e-06
-1.56901e-07
3.94401e-06
1.28613e-07
3.92846e-06
-2.43668e-07
3.94919e-06
1.46947e-07
3.93158e-06
-1.35736e-07
3.95032e-06
6.81284e-08
3.94207e-06
5.14812e-08
3.94916e-06
-2.49651e-08
3.95368e-06
9.34942e-08
3.95118e-06
1.28594e-08
3.95944e-06
3.5586e-08
3.95911e-06
5.73582e-08
3.96198e-06
3.27829e-08
3.9661e-06
5.89452e-08
3.95723e-06
8.82611e-08
3.94681e-06
1.04804e-07
3.9419e-06
1.35683e-07
3.93307e-06
1.71113e-07
1.97765e-07
3.93955e-06
4.12671e-06
1.11678e-07
4.11815e-06
-1.48343e-07
4.13246e-06
1.14303e-07
4.11648e-06
-2.27686e-07
4.13746e-06
1.25971e-07
4.12072e-06
-1.19003e-07
4.13817e-06
5.06838e-08
4.13195e-06
5.77002e-08
4.13691e-06
-2.9924e-08
4.14339e-06
8.7013e-08
4.14013e-06
1.61178e-08
4.14848e-06
2.72404e-08
4.14778e-06
5.80533e-08
4.14273e-06
3.78342e-08
4.13796e-06
6.37105e-08
4.13354e-06
9.26819e-08
4.12932e-06
1.0903e-07
4.12608e-06
1.3892e-07
4.12367e-06
1.73521e-07
1.94329e-07
4.12711e-06
4.32398e-06
1.07003e-07
4.31452e-06
-1.38883e-07
4.32967e-06
9.91474e-08
4.31372e-06
-2.11736e-07
4.33444e-06
1.05249e-07
4.31917e-06
-1.03731e-07
4.33492e-06
3.49392e-08
4.33083e-06
6.17881e-08
4.33387e-06
-3.29673e-08
4.34178e-06
7.91088e-08
4.33773e-06
2.01679e-08
4.34226e-06
2.2706e-08
4.33791e-06
6.24068e-08
4.33146e-06
4.42786e-08
4.33028e-06
6.48905e-08
4.3263e-06
9.66672e-08
4.32184e-06
1.13485e-07
4.32022e-06
1.40546e-07
4.3211e-06
1.7264e-07
1.91731e-07
4.32369e-06
4.53061e-06
1.02164e-07
4.52043e-06
-1.287e-07
4.53598e-06
8.36007e-08
4.52065e-06
-1.9641e-07
4.54059e-06
8.5306e-08
4.52729e-06
-9.04276e-08
4.54114e-06
2.10902e-08
4.539e-06
6.39244e-08
4.54048e-06
-3.44398e-08
4.54836e-06
7.12226e-08
4.54151e-06
2.70246e-08
4.54258e-06
2.16357e-08
4.54001e-06
6.49775e-08
4.53296e-06
5.13222e-08
4.53183e-06
6.60219e-08
4.52885e-06
9.96448e-08
4.52455e-06
1.17793e-07
4.52368e-06
1.41417e-07
4.5267e-06
1.69617e-07
1.89848e-07
4.52858e-06
4.74705e-06
9.72254e-08
4.73641e-06
-1.18058e-07
4.75175e-06
6.826e-08
4.7377e-06
-1.8236e-07
4.75643e-06
6.65816e-08
4.74537e-06
-7.93743e-08
4.75746e-06
8.99956e-09
4.75677e-06
6.46197e-08
4.7566e-06
-3.42701e-08
4.76239e-06
6.54337e-08
4.75365e-06
3.57658e-08
4.75341e-06
2.18748e-08
4.75215e-06
6.62384e-08
4.74506e-06
5.84114e-08
4.74335e-06
6.77243e-08
4.74137e-06
1.01634e-07
4.7375e-06
1.21659e-07
4.73717e-06
1.41744e-07
4.74032e-06
1.6647e-07
1.87411e-07
4.74276e-06
4.97375e-06
9.22716e-08
4.963e-06
-1.07308e-07
4.97742e-06
5.38406e-08
4.96528e-06
-1.7022e-07
4.98252e-06
4.93387e-08
4.97373e-06
-7.05783e-08
4.9844e-06
-1.67074e-09
4.98423e-06
6.47823e-08
4.98124e-06
-3.12779e-08
4.98524e-06
6.14339e-08
4.97633e-06
4.46829e-08
4.97474e-06
2.34574e-08
4.97466e-06
6.63236e-08
4.9679e-06
6.51728e-08
4.96542e-06
7.02043e-08
4.96421e-06
1.02838e-07
4.96109e-06
1.24786e-07
4.9611e-06
1.41728e-07
4.96374e-06
1.63829e-07
1.84094e-07
4.96706e-06
5.21119e-06
8.73952e-08
5.20075e-06
-9.68629e-08
5.2135e-06
4.10928e-08
5.20373e-06
-1.6045e-07
5.21954e-06
3.35275e-08
5.21278e-06
-6.38202e-08
5.22222e-06
-1.11114e-08
5.22153e-06
6.54698e-08
5.21449e-06
-2.42365e-08
5.21832e-06
5.76006e-08
5.21007e-06
5.29396e-08
5.20721e-06
2.63137e-08
5.20791e-06
6.5621e-08
5.20181e-06
7.12794e-08
5.19855e-06
7.34575e-08
5.19785e-06
1.03539e-07
5.19578e-06
1.2686e-07
5.19578e-06
1.41727e-07
5.19822e-06
1.61392e-07
1.80178e-07
5.20213e-06
5.4599e-06
8.2688e-08
5.45019e-06
-8.71529e-08
5.46067e-06
3.06048e-08
5.45325e-06
-1.53031e-07
5.46815e-06
1.86288e-08
5.46294e-06
-5.86092e-08
5.4712e-06
-1.93705e-08
5.46818e-06
6.84935e-08
5.45851e-06
-1.45681e-08
5.46247e-06
5.36432e-08
5.45542e-06
5.99835e-08
5.45134e-06
3.03935e-08
5.45235e-06
6.46136e-08
5.4472e-06
7.64321e-08
5.44332e-06
7.73398e-08
5.44286e-06
1.03998e-07
5.44193e-06
1.27785e-07
5.44183e-06
1.41833e-07
5.44424e-06
1.58975e-07
1.75861e-07
5.44856e-06
5.72041e-06
7.82344e-08
5.71186e-06
-7.86024e-08
5.71977e-06
2.26996e-08
5.71408e-06
-1.47341e-07
5.72867e-06
4.03969e-09
5.72348e-06
-5.34204e-08
5.72782e-06
-2.37168e-08
5.72495e-06
7.13708e-08
5.71442e-06
-4.04118e-09
5.71843e-06
4.96284e-08
5.71282e-06
6.55946e-08
5.70767e-06
3.55476e-08
5.70855e-06
6.37316e-08
5.70449e-06
8.04978e-08
5.70026e-06
8.15666e-08
5.69985e-06
1.04403e-07
5.69993e-06
1.27706e-07
5.69991e-06
1.41859e-07
5.70234e-06
1.56542e-07
1.71281e-07
5.70692e-06
5.99334e-06
7.40902e-08
5.98634e-06
-7.16085e-08
5.99162e-06
1.74179e-08
5.98633e-06
-1.4205e-07
5.99954e-06
-9.16578e-09
5.99185e-06
-4.57362e-08
5.9943e-06
-2.61662e-08
5.99397e-06
7.17073e-08
5.98337e-06
6.55673e-09
5.98671e-06
4.62846e-08
5.9827e-06
6.96074e-08
5.97674e-06
4.15129e-08
5.97718e-06
6.32898e-08
5.97414e-06
8.35323e-08
5.96991e-06
8.57958e-08
5.96949e-06
1.04832e-07
5.97029e-06
1.26897e-07
5.97059e-06
1.41561e-07
5.97307e-06
1.54066e-07
1.66556e-07
5.97779e-06
6.27929e-06
7.0284e-08
6.27411e-06
-6.64239e-08
6.27711e-06
1.44194e-08
6.27035e-06
-1.35289e-07
6.28184e-06
-2.06592e-08
6.27432e-06
-3.82151e-08
6.2751e-06
-2.69469e-08
6.27623e-06
7.05824e-08
6.26576e-06
1.70218e-08
6.26797e-06
4.40758e-08
6.26549e-06
7.20876e-08
6.25911e-06
4.78921e-08
6.25889e-06
6.35049e-08
6.25674e-06
8.56881e-08
6.25279e-06
8.97471e-08
6.25236e-06
1.05255e-07
6.25363e-06
1.25634e-07
6.25444e-06
1.40746e-07
6.25701e-06
1.51499e-07
1.61776e-07
6.26179e-06
6.57894e-06
6.68159e-08
6.57561e-06
-6.30998e-08
6.57689e-06
1.3147e-08
6.56764e-06
-1.26038e-07
6.57827e-06
-3.1294e-08
6.57137e-06
-3.1319e-08
6.57014e-06
-2.57085e-08
6.57209e-06
6.86318e-08
6.56208e-06
2.70253e-08
6.56294e-06
4.32211e-08
6.56171e-06
7.33191e-08
6.55537e-06
5.42312e-08
6.5544e-06
6.44763e-08
6.55293e-06
8.71551e-08
6.54943e-06
9.32452e-08
6.54908e-06
1.05609e-07
6.55061e-06
1.24102e-07
6.55203e-06
1.39324e-07
6.55476e-06
1.48774e-07
1.56987e-07
6.55954e-06
6.89295e-06
6.36548e-08
6.89126e-06
-6.14053e-08
6.89161e-06
1.2798e-08
6.87983e-06
-1.14263e-07
6.88912e-06
-4.05881e-08
6.88307e-06
-2.52593e-08
6.87974e-06
-2.23861e-08
6.8821e-06
6.62746e-08
6.87293e-06
3.61989e-08
6.87236e-06
4.37849e-08
6.87199e-06
7.36947e-08
6.86607e-06
6.01528e-08
6.86439e-06
6.61472e-08
6.86341e-06
8.81402e-08
6.86047e-06
9.61847e-08
6.86023e-06
1.05852e-07
6.86194e-06
1.22385e-07
6.86399e-06
1.3728e-07
6.86695e-06
1.45817e-07
1.52202e-07
6.87173e-06
7.22205e-06
6.07428e-08
7.22155e-06
-6.09098e-08
7.22191e-06
1.24374e-08
7.20776e-06
-1.00109e-07
7.21526e-06
-4.8089e-08
7.20994e-06
-1.99436e-08
7.20452e-06
-1.69639e-08
7.20692e-06
6.38755e-08
7.19888e-06
4.42444e-08
7.19701e-06
4.56535e-08
7.19705e-06
7.36556e-08
7.19179e-06
6.54131e-08
7.18958e-06
6.83526e-08
7.18889e-06
8.88273e-08
7.1866e-06
9.84816e-08
7.18645e-06
1.06001e-07
7.18834e-06
1.20494e-07
7.19098e-06
1.34645e-07
7.19424e-06
1.42548e-07
1.47408e-07
7.19904e-06
7.56697e-06
5.80011e-08
7.56727e-06
-6.12162e-08
7.56833e-06
1.13795e-08
7.55238e-06
-8.41581e-08
7.55763e-06
-5.33349e-08
7.55262e-06
-1.49392e-08
7.54518e-06
-9.52186e-09
7.54729e-06
6.17692e-08
7.54054e-06
5.09877e-08
7.53763e-06
4.85667e-08
7.53768e-06
7.36066e-08
7.53316e-06
6.99285e-08
7.53065e-06
7.08686e-08
7.53013e-06
8.93447e-08
7.52854e-06
1.00075e-07
7.52845e-06
1.06086e-07
7.53052e-06
1.18424e-07
7.53369e-06
1.31476e-07
7.53734e-06
1.38896e-07
1.42562e-07
7.54219e-06
7.92848e-06
5.53359e-08
7.92915e-06
-6.18917e-08
7.93148e-06
9.04902e-09
7.91506e-06
-6.77308e-08
7.91718e-06
-5.54625e-08
7.91168e-06
-9.44125e-09
7.90252e-06
-3.54502e-10
7.904e-06
6.02831e-08
7.8986e-06
5.639e-08
7.89497e-06
5.21949e-08
7.89472e-06
7.38604e-08
7.8909e-06
7.37456e-08
7.88829e-06
7.3483e-08
7.8879e-06
8.97288e-08
7.88702e-06
1.00955e-07
7.88702e-06
1.06089e-07
7.88924e-06
1.16203e-07
7.89287e-06
1.27846e-07
7.89695e-06
1.34813e-07
1.37604e-07
7.90191e-06
8.30735e-06
5.2663e-08
8.30801e-06
-6.25523e-08
8.31434e-06
2.7219e-09
8.29817e-06
-5.1559e-08
8.29471e-06
-5.19993e-08
8.28771e-06
-2.4467e-09
8.2774e-06
9.95391e-09
8.27796e-06
5.97316e-08
8.27377e-06
6.05786e-08
8.26977e-06
5.61868e-08
8.26904e-06
7.45936e-08
8.26578e-06
7.70031e-08
8.26322e-06
7.60437e-08
8.263e-06
8.99562e-08
8.26281e-06
1.01142e-07
8.26297e-06
1.05929e-07
8.26529e-06
1.13886e-07
8.26929e-06
1.23844e-07
8.27382e-06
1.30279e-07
1.32462e-07
8.27896e-06
8.70442e-06
4.99019e-08
8.7061e-06
-6.42295e-08
8.71777e-06
-8.95087e-09
8.70358e-06
-3.73708e-08
8.68998e-06
-3.83956e-08
8.68148e-06
6.04936e-09
8.6708e-06
2.06351e-08
8.67009e-06
6.04484e-08
8.66678e-06
6.38885e-08
8.66278e-06
6.01845e-08
8.66154e-06
7.58358e-08
8.65868e-06
7.98577e-08
8.65625e-06
7.84733e-08
8.65621e-06
9.00014e-08
8.65671e-06
1.0064e-07
8.65713e-06
1.05513e-07
8.65951e-06
1.11505e-07
8.66377e-06
1.1958e-07
8.66875e-06
1.25301e-07
1.27072e-07
8.67414e-06
9.12044e-06
4.70772e-08
9.12844e-06
-7.22242e-08
9.14355e-06
-2.40648e-08
9.11854e-06
-1.2357e-08
9.1018e-06
-2.1658e-08
9.09422e-06
1.36328e-08
9.08374e-06
3.11088e-08
9.08139e-06
6.27999e-08
9.07849e-06
6.67937e-08
9.07473e-06
6.39402e-08
9.07309e-06
7.74801e-08
9.07048e-06
8.24605e-08
9.06821e-06
8.07429e-08
9.06836e-06
8.98536e-08
9.06951e-06
9.9488e-08
9.07032e-06
1.04708e-07
9.07278e-06
1.09043e-07
9.0772e-06
1.15158e-07
9.08257e-06
1.19928e-07
1.21383e-07
9.08826e-06
9.55621e-06
4.43222e-08
9.5578e-06
-7.38066e-08
9.55676e-06
-2.30314e-08
9.54163e-06
2.77463e-09
9.53215e-06
-1.21785e-08
9.52702e-06
1.87609e-08
9.51715e-06
4.09861e-08
9.5129e-06
6.70514e-08
9.50997e-06
6.97176e-08
9.50655e-06
6.73605e-08
9.50472e-06
7.93157e-08
9.50226e-06
8.49201e-08
9.50011e-06
8.2887e-08
9.50045e-06
8.95136e-08
9.50212e-06
9.78235e-08
9.50346e-06
1.03362e-07
9.50605e-06
1.06452e-07
9.51054e-06
1.10674e-07
9.5162e-06
1.14262e-07
1.15362e-07
9.52223e-06
1.00126e-05
4.18211e-08
9.99638e-06
-5.75531e-08
9.99941e-06
-2.60556e-08
9.99242e-06
9.75734e-09
9.98375e-06
-3.5056e-09
9.98023e-06
2.22798e-08
9.97147e-06
4.97492e-08
9.96557e-06
7.29468e-08
9.96214e-06
7.31563e-08
9.95906e-06
7.04399e-08
9.95723e-06
8.11383e-08
9.95492e-06
8.72362e-08
9.95288e-06
8.49271e-08
9.95334e-06
8.90486e-08
9.95545e-06
9.57199e-08
9.95743e-06
1.01373e-07
9.96026e-06
1.03622e-07
9.96479e-06
1.06152e-07
9.97064e-06
1.08412e-07
1.09012e-07
9.97699e-06
1.0491e-05
3.94943e-08
1.04669e-05
-3.34735e-08
1.04761e-05
-3.52462e-08
1.04691e-05
1.67065e-08
1.04575e-05
8.15978e-09
1.04545e-05
2.52384e-08
1.04473e-05
5.69076e-08
1.04404e-05
7.98996e-08
1.0436e-05
7.75473e-08
1.04331e-05
7.33477e-08
1.04315e-05
8.27551e-08
1.04293e-05
8.93795e-08
1.04274e-05
8.68658e-08
1.04279e-05
8.85401e-08
1.04304e-05
9.32691e-08
1.0433e-05
9.87176e-08
1.04362e-05
1.00426e-07
1.04408e-05
1.01555e-07
1.04468e-05
1.02458e-07
1.02421e-07
1.04533e-05
1.09929e-05
3.66248e-08
1.10098e-05
-5.03436e-08
1.09976e-05
-2.30464e-08
1.09701e-05
4.41168e-08
1.09542e-05
2.41393e-08
1.09513e-05
2.81533e-08
1.09457e-05
6.24503e-08
1.09382e-05
8.74232e-08
1.09326e-05
8.3133e-08
1.09296e-05
7.63976e-08
1.09282e-05
8.40829e-08
1.09264e-05
9.12181e-08
1.09246e-05
8.86414e-08
1.09251e-05
8.80328e-08
1.09278e-05
9.05957e-08
1.09311e-05
9.53845e-08
1.09348e-05
9.67189e-08
1.09396e-05
9.67833e-08
1.09456e-05
9.64237e-08
9.56718e-08
1.09524e-05
1.15175e-05
3.44549e-08
1.14957e-05
-2.84666e-08
1.1501e-05
-2.83426e-08
1.14939e-05
5.11754e-08
1.14774e-05
4.06189e-08
1.1472e-05
3.35925e-08
1.14677e-05
6.67703e-08
1.14603e-05
9.48002e-08
1.14536e-05
8.97874e-08
1.14501e-05
7.99376e-08
1.1449e-05
8.51703e-08
1.14476e-05
9.26329e-08
1.1446e-05
9.01756e-08
1.14465e-05
8.75505e-08
1.14491e-05
8.79946e-08
1.14531e-05
9.14184e-08
1.14574e-05
9.24292e-08
1.14624e-05
9.17567e-08
1.14685e-05
9.03291e-08
8.87981e-08
1.14754e-05
1.20681e-05
3.22089e-08
1.20503e-05
-1.06527e-08
1.20452e-05
-2.32814e-08
1.20418e-05
5.45263e-08
1.20263e-05
5.61512e-08
1.20181e-05
4.1788e-08
1.20142e-05
7.0655e-08
1.20074e-05
1.01663e-07
1.19998e-05
9.7347e-08
1.19954e-05
8.43061e-08
1.19944e-05
8.62043e-08
1.19936e-05
9.34794e-08
1.19924e-05
9.13441e-08
1.19929e-05
8.70184e-08
1.19953e-05
8.55774e-08
1.19998e-05
8.69454e-08
1.20048e-05
8.7483e-08
1.20102e-05
8.63498e-08
1.20164e-05
8.41158e-08
8.18089e-08
1.20234e-05
1.26446e-05
3.02307e-08
1.2625e-05
8.90306e-09
1.26201e-05
-1.83671e-08
1.26166e-05
5.80058e-08
1.26011e-05
7.17133e-08
1.25906e-05
5.2265e-08
1.25865e-05
7.46895e-08
1.25805e-05
1.07749e-07
1.25723e-05
1.05473e-07
1.25669e-05
8.9704e-08
1.25657e-05
8.74621e-08
1.25655e-05
9.37037e-08
1.25647e-05
9.20744e-08
1.25652e-05
8.65193e-08
1.25677e-05
8.30589e-08
1.25723e-05
8.23845e-08
1.25779e-05
8.18743e-08
1.25838e-05
8.04788e-08
1.25902e-05
7.76958e-08
7.47201e-08
1.25973e-05
1.32487e-05
2.84524e-08
1.32395e-05
1.80981e-08
1.32283e-05
-7.11402e-09
1.32193e-05
6.69667e-08
1.32033e-05
8.7748e-08
1.31908e-05
6.4718e-08
1.3186e-05
7.94552e-08
1.31807e-05
1.13072e-07
1.31724e-05
1.13846e-07
1.31659e-05
9.61608e-08
1.31641e-05
8.92789e-08
1.31643e-05
9.34607e-08
1.31641e-05
9.22747e-08
1.31647e-05
8.59789e-08
1.31674e-05
8.02891e-08
1.31719e-05
7.78686e-08
1.31781e-05
7.57014e-08
1.31845e-05
7.41288e-08
1.31912e-05
7.09293e-08
6.7459e-08
1.31985e-05
1.38817e-05
2.69581e-08
1.38751e-05
2.46384e-08
1.38606e-05
7.36035e-09
1.38507e-05
7.69505e-08
1.38347e-05
1.0371e-07
1.38202e-05
7.92087e-08
1.38141e-05
8.55342e-08
1.38094e-05
1.17788e-07
1.38012e-05
1.22085e-07
1.37938e-05
1.03545e-07
1.37911e-05
9.19422e-08
1.37915e-05
9.31037e-08
1.37919e-05
9.18724e-08
1.37927e-05
8.51794e-08
1.37956e-05
7.74238e-08
1.38002e-05
7.31789e-08
1.38068e-05
6.91765e-08
1.38135e-05
6.74228e-08
1.38207e-05
6.36538e-08
5.99035e-08
1.38283e-05
1.45444e-05
2.62158e-08
1.45242e-05
4.48727e-08
1.45157e-05
1.58172e-08
1.4512e-05
8.06522e-08
1.44967e-05
1.19068e-07
1.44802e-05
9.56459e-08
1.44723e-05
9.34262e-08
1.44679e-05
1.22257e-07
1.446e-05
1.29901e-07
1.44519e-05
1.11647e-07
1.44482e-05
9.56705e-08
1.44483e-05
9.30383e-08
1.44492e-05
9.09382e-08
1.44504e-05
8.39521e-08
1.44533e-05
7.45435e-08
1.44584e-05
6.81345e-08
1.44651e-05
6.2472e-08
1.44721e-05
6.03903e-08
1.448e-05
5.57952e-08
5.18733e-08
1.4488e-05
1.52393e-05
2.58099e-08
1.52257e-05
5.84945e-08
1.52103e-05
3.11838e-08
1.52039e-05
8.70624e-08
1.51901e-05
1.32842e-07
1.51721e-05
1.13626e-07
1.5162e-05
1.03518e-07
1.51572e-05
1.27053e-07
1.515e-05
1.37135e-07
1.51414e-05
1.20225e-07
1.51365e-05
1.00571e-07
1.5136e-05
9.3601e-08
1.51373e-05
8.96583e-08
1.5139e-05
8.22027e-08
1.51421e-05
7.14826e-08
1.51474e-05
6.27757e-08
1.5154e-05
5.58646e-08
1.5162e-05
5.24503e-08
1.517e-05
4.77534e-08
4.30621e-08
1.51788e-05
1.59672e-05
2.59341e-08
1.59595e-05
6.61945e-08
1.59373e-05
5.33532e-08
1.59291e-05
9.53171e-08
1.59162e-05
1.45689e-07
1.58973e-05
1.32523e-07
1.58849e-05
1.15916e-07
1.58793e-05
1.32737e-07
1.58725e-05
1.43903e-07
1.58637e-05
1.29017e-07
1.58576e-05
1.06627e-07
1.58562e-05
9.50757e-08
1.58575e-05
8.83382e-08
1.58597e-05
7.99686e-08
1.58631e-05
6.81097e-08
1.58685e-05
5.73608e-08
1.58753e-05
4.90955e-08
1.5884e-05
4.37322e-08
1.58926e-05
3.9116e-08
3.3985e-08
1.59017e-05
1.67288e-05
2.77244e-08
1.6703e-05
9.20042e-08
1.66953e-05
6.10441e-08
1.66894e-05
1.01186e-07
1.66765e-05
1.58631e-07
1.66574e-05
1.51651e-07
1.66427e-05
1.30542e-07
1.66356e-05
1.39863e-07
1.66289e-05
1.50596e-07
1.662e-05
1.37936e-07
1.66129e-05
1.13713e-07
1.66103e-05
9.76623e-08
1.66113e-05
8.73779e-08
1.66139e-05
7.73889e-08
1.66176e-05
6.44151e-08
1.6623e-05
5.19329e-08
1.66303e-05
4.18212e-08
1.66393e-05
3.4713e-08
1.66492e-05
2.92477e-08
2.47786e-08
1.66584e-05
1.75293e-05
2.88189e-08
1.75439e-05
7.73622e-08
1.75089e-05
9.6042e-08
1.7485e-05
1.25102e-07
1.74724e-05
1.71206e-07
1.74536e-05
1.70504e-07
1.74369e-05
1.47245e-07
1.74278e-05
1.48972e-07
1.74206e-05
1.57727e-07
1.74116e-05
1.4697e-07
1.74036e-05
1.21737e-07
1.73998e-05
1.01408e-07
1.74e-05
8.72081e-08
1.74026e-05
7.4747e-08
1.74066e-05
6.04057e-08
1.74123e-05
4.62386e-08
1.742e-05
3.4111e-08
1.74295e-05
2.52403e-08
1.744e-05
1.87704e-08
1.41175e-08
1.74507e-05
1.83648e-05
3.23851e-08
1.83397e-05
1.02407e-07
1.8332e-05
1.03777e-07
1.832e-05
1.37105e-07
1.83067e-05
1.84475e-07
1.82879e-05
1.89359e-07
1.82694e-05
1.65672e-07
1.8258e-05
1.60428e-07
1.82499e-05
1.65851e-07
1.82405e-05
1.56339e-07
1.82315e-05
1.30749e-07
1.82266e-05
1.06319e-07
1.82255e-05
8.82828e-08
1.82278e-05
7.24551e-08
1.8232e-05
5.61711e-08
1.82381e-05
4.01519e-08
1.82463e-05
2.59334e-08
1.82564e-05
1.5144e-08
1.82677e-05
7.41042e-09
2.14431e-09
1.82797e-05
1.92429e-05
3.58822e-08
1.92402e-05
1.05121e-07
1.92084e-05
1.35574e-07
1.91941e-05
1.51416e-07
1.91802e-05
1.98341e-07
1.91618e-05
2.07756e-07
1.91419e-05
1.85613e-07
1.91277e-05
1.74641e-07
1.91179e-05
1.75618e-07
1.91078e-05
1.66396e-07
1.90978e-05
1.40786e-07
1.90915e-05
1.12642e-07
1.90889e-05
9.08254e-08
1.90904e-05
7.09622e-08
1.90946e-05