/*--------------------------------*- C++ -*----------------------------------*\
| =========                 |                                                 |
| \\      /  F ield         | OpenFOAM: The Open Source CFD Toolbox           |
|  \\    /   O peration     | Version:  v2012                                 |
|   \\  /    A nd           | Website:  www.openfoam.com                      |
|    \\/     M anipulation  |                                                 |
\*---------------------------------------------------------------------------*/
FoamFile
{
    version     2.0;
    format      ascii;
    class       volScalarField;
    location    "4.15";
    object      p;
}
// * * * * * * * * * * * * * * * * * * * * * * * * * * * * * * * * * * * * * //

dimensions      [0 2 -2 0 0 0 0];


internalField   nonuniform List<scalar> 
17600
(
3.51421e-11
-0.00248078
-0.00353947
-0.00355158
-0.00416922
-0.00393821
-0.00499128
-0.0054458
-0.00560791
-0.00593718
-0.0064984
-0.00670533
-0.00695608
-0.00685079
-0.00672975
-0.00601363
-0.00545494
-0.00399843
-0.0022261
0.00135809
8.38312e-07
-0.00248428
-0.00353791
-0.00355318
-0.00416841
-0.00393954
-0.00498953
-0.00544838
-0.00560499
-0.00594
-0.00649474
-0.00670923
-0.00695195
-0.00685817
-0.00672496
-0.00604296
-0.00544519
-0.00405742
-0.00221208
0.0010719
3.20596e-07
-0.0024892
-0.00353428
-0.00355506
-0.00416671
-0.00394169
-0.0049875
-0.00545209
-0.00560137
-0.00594426
-0.00649038
-0.00671549
-0.00694647
-0.00686907
-0.00671915
-0.00607195
-0.00543451
-0.00412174
-0.00221188
0.000670987
-2.70959e-06
-0.00249453
-0.00352925
-0.00355596
-0.00416456
-0.00394423
-0.00498603
-0.00545594
-0.005598
-0.00594875
-0.00648632
-0.00672247
-0.00694094
-0.00688117
-0.00671359
-0.00610112
-0.00542729
-0.00418373
-0.00224194
0.000277052
-8.12171e-06
-0.00250033
-0.00352297
-0.00355572
-0.00416211
-0.00394736
-0.00498498
-0.00546001
-0.00559462
-0.00595351
-0.00648219
-0.00673009
-0.00693504
-0.00689468
-0.00670787
-0.00613233
-0.00542256
-0.00424872
-0.00230317
-9.5661e-05
-1.55671e-05
-0.00250658
-0.00351551
-0.00355443
-0.00415947
-0.00395124
-0.00498415
-0.00546446
-0.00559099
-0.00595857
-0.00647774
-0.00673838
-0.00692873
-0.00690952
-0.00670209
-0.00616553
-0.0054209
-0.00431736
-0.00239384
-0.000445078
-2.46402e-05
-0.00251313
-0.00350704
-0.00355224
-0.00415673
-0.00395583
-0.00498335
-0.00546927
-0.00558692
-0.00596389
-0.00647295
-0.00674726
-0.00692226
-0.00692537
-0.00669695
-0.00620008
-0.00542436
-0.00438927
-0.00251231
-0.000775452
-3.48925e-05
-0.00251986
-0.00349776
-0.00354928
-0.00415389
-0.00396101
-0.00498243
-0.00547446
-0.00558233
-0.00596944
-0.0064679
-0.0067567
-0.00691592
-0.00694205
-0.00669332
-0.00623508
-0.00543548
-0.00446348
-0.00265721
-0.00109303
-4.59365e-05
-0.00252674
-0.00348781
-0.00354568
-0.0041509
-0.00396664
-0.00498131
-0.00548004
-0.00557723
-0.00597523
-0.00646267
-0.00676666
-0.00690998
-0.00695933
-0.00669202
-0.00626961
-0.00545649
-0.00453949
-0.00282671
-0.00140406
-5.75171e-05
-0.00253379
-0.00347726
-0.00354159
-0.00414772
-0.00397263
-0.00497997
-0.00548605
-0.00557166
-0.00598122
-0.00645739
-0.00677707
-0.00690472
-0.0069768
-0.00669388
-0.00630295
-0.00548901
-0.00461756
-0.00301805
-0.00171395
-6.95016e-05
-0.00254103
-0.00346618
-0.00353711
-0.00414433
-0.00397894
-0.00497845
-0.00549248
-0.00556568
-0.00598736
-0.00645221
-0.00678773
-0.00690057
-0.00699388
-0.00669985
-0.00633456
-0.00553398
-0.00469904
-0.0032275
-0.00202688
-8.18293e-05
-0.00254848
-0.00345464
-0.0035323
-0.00414071
-0.0039855
-0.00497677
-0.00549932
-0.00555934
-0.00599353
-0.00644734
-0.00679833
-0.00689801
-0.00700995
-0.00671089
-0.00636457
-0.00559156
-0.00478639
-0.00345083
-0.0023454
-9.44697e-05
-0.00255614
-0.00344269
-0.00352719
-0.00413688
-0.00399228
-0.00497496
-0.00550649
-0.00555277
-0.00599954
-0.00644305
-0.00680852
-0.00689758
-0.00702453
-0.00672774
-0.0063935
-0.00566105
-0.00488274
-0.00368409
-0.00267053
-0.000107403
-0.00256399
-0.00343041
-0.00352176
-0.00413287
-0.00399924
-0.00497308
-0.00551393
-0.00554608
-0.00600518
-0.00643965
-0.0068179
-0.00689982
-0.00703727
-0.00675086
-0.00642276
-0.00574102
-0.004991
-0.00392434
-0.00300206
-0.000120617
-0.00257201
-0.00341786
-0.00351597
-0.0041287
-0.00400632
-0.00497117
-0.00552152
-0.00553944
-0.00601017
-0.00643751
-0.00682609
-0.00690513
-0.00704817
-0.00678025
-0.00645442
-0.00582976
-0.0051133
-0.00416989
-0.00333901
-0.000134108
-0.00258014
-0.0034051
-0.00350983
-0.00412445
-0.00401343
-0.00496932
-0.0055291
-0.00553309
-0.00601416
-0.00643698
-0.00683277
-0.00691378
-0.00705772
-0.00681536
-0.00649078
-0.00592601
-0.00525105
-0.00441993
-0.00367974
-0.000147884
-0.00258832
-0.00339221
-0.00350311
-0.00412019
-0.00402047
-0.00496764
-0.00553649
-0.00552731
-0.00601686
-0.00643834
-0.00683784
-0.00692583
-0.0070668
-0.00685521
-0.00653382
-0.00602936
-0.00540477
-0.0046742
-0.00402224
-0.000161963
-0.00259648
-0.00337928
-0.0034958
-0.00411604
-0.00402731
-0.0049663
-0.00554346
-0.00552237
-0.006018
-0.00644178
-0.00684133
-0.00694118
-0.00707672
-0.00689862
-0.00658492
-0.00613997
-0.00557407
-0.00493307
-0.00436432
-0.000176376
-0.0026045
-0.00336642
-0.0034882
-0.00411209
-0.00403381
-0.00496548
-0.0055498
-0.00551847
-0.00601752
-0.00644734
-0.00684349
-0.00695944
-0.00708877
-0.00694499
-0.00664525
-0.00625825
-0.00575809
-0.00519748
-0.00470395
-0.000191164
-0.00261224
-0.00335374
-0.00347924
-0.00410854
-0.00403979
-0.00496536
-0.00555533
-0.00551576
-0.00601547
-0.00645545
-0.006845
-0.00697944
-0.00710449
-0.00699448
-0.00671594
-0.00638498
-0.00595589
-0.00546878
-0.00503996
-0.000206388
-0.00261953
-0.00334138
-0.00346912
-0.00410559
-0.00404506
-0.00496606
-0.00555994
-0.00551427
-0.00601193
-0.00646406
-0.00684694
-0.00700004
-0.00712402
-0.00704775
-0.00679771
-0.00652117
-0.00616655
-0.00574825
-0.00537241
-0.000222125
-0.00262616
-0.00332953
-0.00345768
-0.00410343
-0.00404948
-0.00496874
-0.00556358
-0.00551566
-0.00600718
-0.00647317
-0.00685017
-0.00702099
-0.00714795
-0.00710589
-0.00689118
-0.00666807
-0.00638926
-0.00603661
-0.00570255
-0.000238466
-0.00263183
-0.00331841
-0.00344469
-0.00410226
-0.00405288
-0.00497139
-0.00556625
-0.00551637
-0.00600203
-0.006482
-0.00685491
-0.00704209
-0.00717624
-0.00716995
-0.00699728
-0.00682744
-0.00662356
-0.00633409
-0.00603246
-0.000255564
-0.00263621
-0.00330825
-0.00342996
-0.00410221
-0.00405522
-0.00497493
-0.00556819
-0.00551716
-0.00599737
-0.00649002
-0.00686119
-0.00706469
-0.00720807
-0.00724002
-0.0071169
-0.00700138
-0.00687007
-0.0066416
-0.0063652
-0.000273586
-0.00263889
-0.00329928
-0.00341331
-0.00410335
-0.00405665
-0.00497894
-0.00557019
-0.00551683
-0.00599384
-0.00649691
-0.00686893
-0.00708919
-0.00724306
-0.0073153
-0.00724969
-0.0071913
-0.00713053
-0.00696362
-0.00670564
-0.000292721
-0.00263941
-0.00329169
-0.00339463
-0.00410569
-0.00405749
-0.00498259
-0.00557339
-0.00551442
-0.00599165
-0.00650255
-0.00687752
-0.00711657
-0.00728178
-0.00739395
-0.00739107
-0.00739133
-0.00740639
-0.00731406
-0.00706262
-0.000313269
-0.00263724
-0.00328566
-0.0033739
-0.00410914
-0.00405814
-0.00498506
-0.00557879
-0.00550953
-0.00599073
-0.00650772
-0.00688532
-0.0071469
-0.00732518
-0.00747626
-0.0075389
-0.00759979
-0.00768557
-0.00766805
-0.00746886
-0.000335523
-0.00263182
-0.00328128
-0.00335125
-0.00411322
-0.00405953
-0.0049852
-0.00558701
-0.00550195
-0.00599032
-0.00651426
-0.00689134
-0.00717931
-0.00737211
-0.00756355
-0.00770363
-0.00782713
-0.00797286
-0.00802842
-0.00788153
-0.000359797
-0.00262263
-0.00327855
-0.00332695
-0.00411715
-0.00406308
-0.00498195
-0.00559826
-0.00549229
-0.00598903
-0.00652376
-0.00689669
-0.0072157
-0.00743563
-0.00766254
-0.00787832
-0.00806965
-0.00827111
-0.00839199
-0.00829072
-0.000386477
-0.00260912
-0.00327725
-0.00330147
-0.00412006
-0.00406989
-0.00497481
-0.00561238
-0.00548217
-0.00598598
-0.0065381
-0.00690688
-0.00726023
-0.00751224
-0.00776734
-0.00805504
-0.00832346
-0.00858109
-0.00875588
-0.00869378
-0.000415877
-0.00259087
-0.00327691
-0.00327565
-0.00412098
-0.00408068
-0.0049637
-0.00562882
-0.00547353
-0.00598123
-0.00656091
-0.00692408
-0.00730798
-0.00759924
-0.0078785
-0.00823034
-0.00858442
-0.00890266
-0.00912174
-0.00908801
-0.000448312
-0.00256772
-0.00327698
-0.00325021
-0.00411918
-0.00409592
-0.00494929
-0.00564723
-0.00546872
-0.00597625
-0.00659343
-0.00694647
-0.0073579
-0.00769632
-0.00800024
-0.00840419
-0.00884732
-0.00923352
-0.00949022
-0.00947326
-0.000483978
-0.00253965
-0.00327625
-0.00322566
-0.00411415
-0.00411609
-0.00493265
-0.0056678
-0.00547198
-0.00597159
-0.0066323
-0.00697305
-0.00740064
-0.00780147
-0.00813547
-0.00857851
-0.00910673
-0.00956885
-0.00986136
-0.0098514
-0.000522888
-0.00250699
-0.00327211
-0.0032025
-0.0041055
-0.00414127
-0.00491554
-0.00569191
-0.00548775
-0.00596458
-0.00667326
-0.00700654
-0.00743901
-0.00790985
-0.00828545
-0.00875712
-0.00935926
-0.00990328
-0.0102351
-0.0102253
-0.000565005
-0.0024704
-0.00326427
-0.00318069
-0.00409353
-0.00417128
-0.00490084
-0.00572105
-0.00551425
-0.00595272
-0.00671245
-0.00704974
-0.00747517
-0.00801597
-0.00844893
-0.00894455
-0.00960493
-0.010232
-0.01061
-0.0105972
-0.00061008
-0.00243082
-0.00325174
-0.00315954
-0.00407923
-0.00420564
-0.00489181
-0.00575432
-0.00555072
-0.00593646
-0.00674712
-0.00710437
-0.00751265
-0.008116
-0.00862202
-0.0091444
-0.00984693
-0.0105513
-0.0109823
-0.0109679
-0.00065769
-0.00238934
-0.0032341
-0.00313837
-0.00406338
-0.00424997
-0.00489819
-0.0057874
-0.0055963
-0.00591742
-0.00677517
-0.0071707
-0.00755584
-0.00820821
-0.00879983
-0.00935839
-0.0100896
-0.0108589
-0.0113471
-0.0113361
-0.000707361
-0.00234686
-0.003212
-0.00311713
-0.00404613
-0.00430267
-0.00490101
-0.00581725
-0.00565099
-0.00590034
-0.00679432
-0.00724665
-0.0076092
-0.00829304
-0.00897702
-0.00958556
-0.0103367
-0.0111546
-0.0116998
-0.0116991
-0.000758373
-0.00230433
-0.00318678
-0.00309635
-0.00402677
-0.00436239
-0.00491101
-0.00584213
-0.00571441
-0.00588902
-0.00680291
-0.00732836
-0.00767663
-0.00837307
-0.00914821
-0.00982193
-0.0105904
-0.0114399
-0.0120369
-0.0120535
-0.000809952
-0.00226248
-0.00315985
-0.00307681
-0.00400436
-0.00442749
-0.00492993
-0.0058611
-0.00578462
-0.00588711
-0.00680059
-0.00741155
-0.00776079
-0.00845284
-0.00930901
-0.0100613
-0.010851
-0.0117175
-0.0123566
-0.0123958
-0.000861561
-0.00222367
-0.00313253
-0.00305999
-0.00397853
-0.00449569
-0.00495895
-0.00587404
-0.0058589
-0.00589752
-0.00678957
-0.00749165
-0.00786172
-0.00853777
-0.00945757
-0.0102967
-0.0111164
-0.0119902
-0.0126591
-0.0127229
-0.000912682
-0.0021839
-0.00310605
-0.00304816
-0.00394951
-0.00456449
-0.00499875
-0.00588122
-0.00593364
-0.00592243
-0.00677398
-0.00756368
-0.00797581
-0.00863244
-0.00959547
-0.0105227
-0.0113833
-0.0122597
-0.0129457
-0.0130322
-0.000962848
-0.00214452
-0.00308111
-0.00304422
-0.00391878
-0.00463135
-0.00504871
-0.00588346
-0.00600511
-0.00596242
-0.00675855
-0.0076237
-0.0080971
-0.00873925
-0.00972661
-0.0107358
-0.0116472
-0.0125271
-0.0132185
-0.0133224
-0.00101155
-0.00210479
-0.00305812
-0.00305227
-0.00388997
-0.0046928
-0.00510674
-0.00588239
-0.0060701
-0.00601635
-0.00674792
-0.00767076
-0.00821959
-0.00885799
-0.00985523
-0.0109346
-0.0119037
-0.0127911
-0.0134791
-0.0135924
-0.00105787
-0.00206336
-0.00303798
-0.00307779
-0.00386725
-0.00474448
-0.00517016
-0.00588039
-0.00612542
-0.00608138
-0.00674648
-0.00770642
-0.00833786
-0.00898635
-0.00998434
-0.0111193
-0.0121484
-0.0130492
-0.0137282
-0.013842
-0.00110049
-0.00201886
-0.00302264
-0.00312657
-0.0038539
-0.00478365
-0.00523683
-0.00587957
-0.00616864
-0.00615291
-0.00675697
-0.00773381
-0.00844756
-0.00912037
-0.010115
-0.0112906
-0.012378
-0.0132983
-0.0139659
-0.0140717
-0.00113932
-0.00197339
-0.00301288
-0.00319199
-0.00384918
-0.0048116
-0.00530654
-0.0058842
-0.00620028
-0.00622522
-0.00677947
-0.0077566
-0.00854618
-0.00925528
-0.0102468
-0.01145
-0.0125905
-0.0135356
-0.0141923
-0.0142831
-0.0011822
-0.00193435
-0.00299696
-0.00326134
-0.0038553
-0.00483234
-0.00537877
-0.00589961
-0.0062228
-0.00629358
-0.00681243
-0.0077784
-0.00863313
-0.00938636
-0.0103779
-0.0115987
-0.0127855
-0.013759
-0.0144075
-0.0144781
-0.00122994
-0.00190755
-0.00297094
-0.00333283
-0.0038729
-0.00484487
-0.00545052
-0.00592767
-0.00623971
-0.00635369
-0.00685285
-0.00780179
-0.00870827
-0.00950858
-0.0105045
-0.0117362
-0.0129622
-0.0139664
-0.0146105
-0.0146576
-0.00127206
-0.00187924
-0.00296267
-0.00341458
-0.00390424
-0.00485105
-0.00551743
-0.00596774
-0.00625525
-0.00640201
-0.00689488
-0.00782723
-0.00877231
-0.00961774
-0.0106221
-0.0118606
-0.0131193
-0.0141555
-0.0147998
-0.0148223
-0.00131626
-0.00186368
-0.00295087
-0.00349801
-0.00395002
-0.00485291
-0.0055753
-0.00601763
-0.00627432
-0.00643951
-0.00693345
-0.00785359
-0.00882766
-0.00971294
-0.0107268
-0.0119691
-0.0132553
-0.0143242
-0.0149741
-0.0149736
-0.0013702
-0.00185804
-0.00293275
-0.00357969
-0.00401245
-0.00485648
-0.00562362
-0.0060749
-0.00630054
-0.00646836
-0.0069634
-0.00787606
-0.00887419
-0.00979419
-0.0108159
-0.0120585
-0.0133666
-0.0144693
-0.015132
-0.0151132
-0.00142976
-0.00186199
-0.00290696
-0.00365999
-0.00409203
-0.00486598
-0.00566064
-0.00613494
-0.0063351
-0.00649137
-0.00698126
-0.00788907
-0.00891013
-0.00986228
-0.0108898
-0.0121264
-0.0134488
-0.0145848
-0.0152683
-0.0152395
-0.00149159
-0.00187816
-0.00289577
-0.00373787
-0.00418638
-0.00488392
-0.00568411
-0.00619157
-0.00637827
-0.00651224
-0.00698541
-0.00788712
-0.00893126
-0.00991599
-0.0109485
-0.0121715
-0.013498
-0.0146637
-0.0153751
-0.0153479
-0.00155669
-0.00190774
-0.00289535
-0.00381285
-0.00429357
-0.00491475
-0.005697
-0.0062397
-0.00642809
-0.00653403
-0.00697531
-0.00786443
-0.00893063
-0.00995007
-0.0109895
-0.0121934
-0.0135129
-0.0147003
-0.0154444
-0.0154314
-0.00162945
-0.0019537
-0.00290213
-0.00388328
-0.00441089
-0.00496209
-0.00570404
-0.00627545
-0.00647962
-0.0065588
-0.00695432
-0.00781816
-0.00890158
-0.00995693
-0.0110075
-0.012191
-0.0134934
-0.0146918
-0.0154686
-0.0154801
-0.00171107
-0.00201372
-0.00292091
-0.00395022
-0.00453539
-0.00502805
-0.00571006
-0.0062961
-0.0065257
-0.00658588
-0.00692601
-0.00774784
-0.00883831
-0.00992817
-0.0109949
-0.0121609
-0.0134394
-0.0146385
-0.0154424
-0.0154854
-0.0018036
-0.00208702
-0.002955
-0.00401599
-0.00466385
-0.00511218
-0.00571958
-0.00630141
-0.00656019
-0.00661233
-0.00689336
-0.00765514
-0.0087358
-0.00985496
-0.0109427
-0.0120966
-0.0133482
-0.0145393
-0.0153638
-0.0154407
-0.0019081
-0.00218527
-0.00300291
-0.00408257
-0.00479309
-0.00521315
-0.00573821
-0.00629535
-0.00657993
-0.00663333
-0.00685616
-0.00754159
-0.00858984
-0.00972707
-0.0108387
-0.0119873
-0.0132132
-0.0143896
-0.0152273
-0.0153385
-0.00202236
-0.00229125
-0.00308247
-0.00415494
-0.00492157
-0.00532966
-0.00577023
-0.00628117
-0.00658088
-0.00664094
-0.00680982
-0.00740693
-0.00839952
-0.00953829
-0.0106715
-0.0118207
-0.0130249
-0.0141834
-0.0150287
-0.0151749
-0.00215265
-0.00242245
-0.00318159
-0.00423573
-0.00504848
-0.00545907
-0.00581914
-0.00626345
-0.00656179
-0.00662908
-0.00674956
-0.00725064
-0.00816466
-0.00928219
-0.0104275
-0.0115796
-0.0127667
-0.0139098
-0.0147607
-0.0149352
-0.00230573
-0.00257288
-0.00330302
-0.00432808
-0.00517467
-0.00559876
-0.00588786
-0.00624921
-0.00652423
-0.00659313
-0.00666902
-0.00706891
-0.00788197
-0.0089496
-0.0100897
-0.0112431
-0.0124155
-0.0135432
-0.0143944
-0.0146002
-0.00248269
-0.00274872
-0.00344598
-0.00443776
-0.00530232
-0.00574625
-0.0059781
-0.00624678
-0.00647335
-0.00653091
-0.00656202
-0.00685648
-0.00754649
-0.00853103
-0.00963848
-0.0107849
-0.0119494
-0.0130546
-0.0139078
-0.0141514
-0.00268221
-0.00294022
-0.00362182
-0.00457113
-0.00543444
-0.00590066
-0.00609102
-0.00626514
-0.00642143
-0.00644713
-0.00642613
-0.00660827
-0.00715313
-0.00801444
-0.00904733
-0.0101559
-0.0112988
-0.0123996
-0.013269
-0.0135639
-0.00290852
-0.00315547
-0.00382286
-0.00472724
-0.00557358
-0.00606294
-0.00622431
-0.00630794
-0.00638382
-0.00635871
-0.006269
-0.00632301
-0.00669301
-0.00738504
-0.00829047
-0.00931897
-0.0104248
-0.0115227
-0.0124262
-0.0127999
-0.0031883
-0.00339938
-0.00403467
-0.00487794
-0.00571942
-0.006234
-0.00637506
-0.00637467
-0.00636636
-0.00628621
-0.00610971
-0.00600461
-0.00615389
-0.00661202
-0.00732419
-0.00820711
-0.00922986
-0.0103147
-0.011281
-0.0117906
-0.00352584
-0.00378717
-0.00425752
-0.00501466
-0.00587719
-0.0064064
-0.00653145
-0.00646361
-0.00637409
-0.00624222
-0.00599383
-0.00569068
-0.00554114
-0.00565273
-0.00604324
-0.00668393
-0.00752036
-0.00854422
-0.00961585
-0.0103791
-0.00383065
-0.00402245
-0.00460876
-0.00535343
-0.00609754
-0.00657506
-0.00668157
-0.00657181
-0.00640667
-0.00623104
-0.00597507
-0.00555802
-0.00501484
-0.00451459
-0.00425521
-0.00434851
-0.00480886
-0.00555943
-0.00649651
-0.00743463
-0.0041954
-0.00438617
-0.00498323
-0.00569463
-0.00633656
-0.00673485
-0.00681621
-0.00669784
-0.00648155
-0.00619988
-0.00595255
-0.00575564
-0.00514744
-0.00403965
-0.00304432
-0.00249697
-0.00228593
-0.00213845
-0.00190083
-0.00164424
-0.00467039
-0.00484175
-0.005372
-0.00602484
-0.00656069
-0.00687364
-0.00692111
-0.006803
-0.00663413
-0.00613393
-0.00508188
-0.00392909
-0.00294533
-0.00220661
-0.00161631
-0.0010234
-0.000341392
0.000406952
0.00107112
0.00128776
-0.00520908
-0.00534469
-0.00581501
-0.00635971
-0.00675619
-0.00695662
-0.00697373
-0.00654071
-0.00566224
-0.00475541
-0.0039564
-0.00325838
-0.00261026
-0.00189048
-0.00104492
-8.09863e-05
0.000943586
0.00190754
0.00259994
0.00267672
-0.00586092
-0.00591649
-0.00625982
-0.0066566
-0.00690363
-0.0067032
-0.00619326
-0.00557183
-0.00495985
-0.0043965
-0.00383383
-0.00316626
-0.00232988
-0.00132886
-0.000216665
0.000950184
0.00210399
0.00312291
0.00378177
0.0037434
-0.00668919
-0.00677162
-0.00663624
-0.00647132
-0.00628682
-0.00601796
-0.00566825
-0.00527826
-0.00482205
-0.00426983
-0.0035907
-0.00275244
-0.00175711
-0.000637996
0.000569986
0.00181427
0.00301043
0.00401878
0.00462357
0.00449913
-0.00740442
-0.00735754
-0.00691169
-0.00637617
-0.00594325
-0.00564215
-0.00537222
-0.00503996
-0.00458044
-0.0039671
-0.00319659
-0.00227654
-0.00121875
-4.40131e-05
0.0012079
0.00247734
0.0036745
0.00466059
0.00522053
0.00503149
-0.00795246
-0.00779157
-0.00719806
-0.00645714
-0.0058255
-0.00538703
-0.00505854
-0.00470132
-0.00422325
-0.00358978
-0.00279617
-0.00184819
-0.000761023
0.000440358
0.00171396
0.0029958
0.0041915
0.00515892
0.00568217
0.00544111
-0.00841422
-0.00817343
-0.00746859
-0.00657275
-0.00576518
-0.00517146
-0.00474274
-0.00434652
-0.00386732
-0.00324048
-0.00244489
-0.0014866
-0.00038248
0.000836721
0.00212421
0.00341232
0.00460333
0.00555284
0.00604496
0.00576212
-0.00880752
-0.00850974
-0.00769255
-0.00667156
-0.00572461
-0.00499984
-0.00447877
-0.00403981
-0.00355381
-0.00293322
-0.00214153
-0.0011776
-6.22668e-05
0.00116797
0.00246236
0.0037508
0.00493392
0.00586643
0.00633291
0.00601771
-0.00912064
-0.00877009
-0.00788238
-0.00676233
-0.00570582
-0.00487772
-0.00427708
-0.00379321
-0.00329023
-0.00266979
-0.00188244
-0.000919664
0.000199197
0.00143401
0.00273001
0.00401533
0.00518968
0.00610769
0.00655457
0.00621598
-0.0093543
-0.00897305
-0.00803122
-0.00684408
-0.00571291
-0.00481125
-0.00414713
-0.00361638
-0.00308389
-0.00244594
-0.00164947
-0.000683769
0.000433023
0.00166382
0.0029553
0.00423334
0.00539733
0.00630255
0.00673468
0.00637955
-0.00949983
-0.00910887
-0.00814321
-0.00692248
-0.00575279
-0.00481167
-0.00410907
-0.00354318
-0.00298302
-0.00232437
-0.00150787
-0.000521916
0.000611749
0.00185103
0.00314023
0.0044094
0.00556236
0.00645788
0.00688304
0.0065231
0.00537165
0.000661414
-0.00646911
-0.0115685
-0.0126076
-0.0112971
-0.00975293
-0.00869694
-0.00810388
-0.00780675
-0.00768179
-0.00765803
-0.00769708
-0.00777562
-0.0078745
-0.00797771
-0.00807525
-0.00816235
-0.00823752
-0.00830304
-0.00836384
-0.00842419
-0.00848544
-0.00854694
-0.00860828
-0.00867066
-0.00873639
-0.0088068
-0.0088808
-0.00895634
-0.00903237
-0.00910916
-0.00918662
-0.00926403
-0.0093404
-0.00941522
-0.00948807
-0.00955866
-0.00962699
-0.00969355
-0.0097588
-0.00982269
-0.00988466
-0.00994451
-0.0100025
-0.0100594
-0.0101154
-0.0101702
-0.0102236
-0.0102754
-0.0103261
-0.0103759
-0.0104248
-0.0104728
-0.0105199
-0.0105662
-0.010612
-0.0106572
-0.0107018
-0.0107456
-0.0107886
-0.0108308
-0.0108724
-0.0109134
-0.0109537
-0.0109929
-0.0110312
-0.0110688
-0.011106
-0.0111425
-0.0111783
-0.0112135
-0.0112482
-0.0112826
-0.0113165
-0.0113499
-0.0113829
-0.0114159
-0.0114487
-0.0114813
-0.0115137
-0.011546
-0.0115783
-0.0116107
-0.011643
-0.0116753
-0.0117073
-0.0117391
-0.011771
-0.0118027
-0.0118342
-0.0118654
-0.0118965
-0.0119273
-0.0119579
-0.0119882
-0.0120185
-0.0120484
-0.0120782
-0.0121076
-0.0121368
-0.0121656
-0.0121943
-0.0122226
-0.0122507
-0.0122783
-0.0123057
-0.0123329
-0.0123597
-0.0123864
-0.0124128
-0.0124393
-0.0124653
-0.0124914
-0.012517
-0.0125429
-0.0125683
-0.0125937
-0.0126186
-0.0126434
-0.012668
-0.0126924
-0.0127166
-0.0127403
-0.0127641
-0.0127872
-0.0128105
-0.0128332
-0.012856
-0.0128781
-0.0129001
-0.0129219
-0.0129434
-0.0129649
-0.0129857
-0.0130067
-0.0130271
-0.0130477
-0.0130676
-0.0130878
-0.013107
-0.0131262
-0.0131452
-0.0131638
-0.0131826
-0.0132002
-0.0132183
-0.0132354
-0.0132533
-0.0132698
-0.0132866
-0.0133026
-0.0133187
-0.0133346
-0.0133496
-0.0133651
-0.0133791
-0.0133945
-0.013408
-0.0134221
-0.0134349
-0.0134478
-0.0134609
-0.0134723
-0.0134849
-0.0134955
-0.013508
-0.0135181
-0.0135291
-0.0135394
-0.0135489
-0.0135594
-0.0135671
-0.0135773
-0.0135843
-0.0135936
-0.0136006
-0.0136074
-0.013615
-0.0136196
-0.0136273
-0.0136305
-0.0136371
-0.0136411
-0.0136445
-0.0136499
-0.0136501
-0.0136559
-0.0136544
-0.0136576
-0.0136567
-0.0136556
-0.0136557
-0.0136501
-0.0136486
-0.0136419
-0.0136336
-0.0136306
-0.0136165
-0.0136213
0.0046515
0.000477911
-0.00639458
-0.0114304
-0.0125239
-0.0112575
-0.00972806
-0.00867923
-0.00809101
-0.00779695
-0.00767391
-0.00765142
-0.00769139
-0.00777063
-0.00787007
-0.00797375
-0.00807168
-0.00815911
-0.00823458
-0.00830033
-0.00836133
-0.00842186
-0.00848326
-0.00854492
-0.00860638
-0.00866887
-0.0087347
-0.0088052
-0.00887929
-0.00895491
-0.00903102
-0.00910787
-0.0091854
-0.00926287
-0.00933929
-0.00941417
-0.00948706
-0.00955771
-0.00962608
-0.00969267
-0.00975796
-0.00982189
-0.00988389
-0.00994377
-0.0100018
-0.0100587
-0.0101147
-0.0101696
-0.010223
-0.0102749
-0.0103255
-0.0103754
-0.0104243
-0.0104723
-0.0105194
-0.0105657
-0.0106115
-0.0106567
-0.0107014
-0.0107452
-0.0107882
-0.0108304
-0.010872
-0.0109131
-0.0109534
-0.0109926
-0.0110309
-0.0110685
-0.0111057
-0.0111422
-0.011178
-0.0112132
-0.0112479
-0.0112823
-0.0113162
-0.0113496
-0.0113827
-0.0114156
-0.0114484
-0.0114811
-0.0115135
-0.0115458
-0.011578
-0.0116105
-0.0116428
-0.0116751
-0.0117071
-0.0117389
-0.0117708
-0.0118025
-0.011834
-0.0118652
-0.0118963
-0.0119271
-0.0119578
-0.0119881
-0.0120183
-0.0120482
-0.0120781
-0.0121074
-0.0121366
-0.0121655
-0.0121942
-0.0122225
-0.0122505
-0.0122782
-0.0123056
-0.0123327
-0.0123595
-0.0123863
-0.0124127
-0.0124392
-0.0124652
-0.0124913
-0.0125169
-0.0125428
-0.0125682
-0.0125936
-0.0126185
-0.0126433
-0.012668
-0.0126923
-0.0127165
-0.0127402
-0.012764
-0.0127871
-0.0128105
-0.0128331
-0.0128559
-0.012878
-0.0129001
-0.0129218
-0.0129433
-0.0129648
-0.0129856
-0.0130067
-0.013027
-0.0130477
-0.0130675
-0.0130877
-0.013107
-0.0131262
-0.0131451
-0.0131638
-0.0131825
-0.0132001
-0.0132183
-0.0132354
-0.0132533
-0.0132698
-0.0132866
-0.0133026
-0.0133186
-0.0133346
-0.0133495
-0.0133651
-0.0133791
-0.0133945
-0.013408
-0.013422
-0.0134348
-0.0134478
-0.0134609
-0.0134723
-0.0134849
-0.0134955
-0.013508
-0.0135181
-0.0135291
-0.0135393
-0.0135489
-0.0135594
-0.013567
-0.0135773
-0.0135843
-0.0135936
-0.0136005
-0.0136073
-0.013615
-0.0136196
-0.0136273
-0.0136305
-0.013637
-0.013641
-0.0136445
-0.0136498
-0.0136501
-0.0136559
-0.0136544
-0.0136576
-0.0136566
-0.0136555
-0.0136557
-0.0136501
-0.0136485
-0.0136419
-0.0136336
-0.0136306
-0.0136164
-0.0136213
0.00389214
0.000289961
-0.00623001
-0.0111707
-0.0123723
-0.0111982
-0.0096969
-0.0086552
-0.00807194
-0.00778223
-0.00766251
-0.00764241
-0.00768408
-0.00776453
-0.00786486
-0.0079692
-0.00806765
-0.00815552
-0.00823135
-0.00829741
-0.00835867
-0.00841942
-0.008481
-0.00854282
-0.00860443
-0.00866704
-0.00873298
-0.00880358
-0.00887776
-0.00895347
-0.00902966
-0.00910658
-0.00918418
-0.00926171
-0.0093382
-0.00941313
-0.00948607
-0.00955676
-0.00962517
-0.00969181
-0.00975713
-0.0098211
-0.00988314
-0.00994304
-0.0100011
-0.010058
-0.0101141
-0.010169
-0.0102224
-0.0102743
-0.010325
-0.0103748
-0.0104238
-0.0104718
-0.0105189
-0.0105652
-0.0106111
-0.0106563
-0.0107009
-0.0107447
-0.0107878
-0.01083
-0.0108717
-0.0109127
-0.010953
-0.0109923
-0.0110306
-0.0110682
-0.0111054
-0.0111419
-0.0111777
-0.0112129
-0.0112476
-0.011282
-0.0113159
-0.0113494
-0.0113824
-0.0114154
-0.0114482
-0.0114809
-0.0115133
-0.0115456
-0.0115778
-0.0116103
-0.0116426
-0.0116749
-0.0117069
-0.0117388
-0.0117706
-0.0118023
-0.0118339
-0.0118651
-0.0118961
-0.0119269
-0.0119576
-0.0119879
-0.0120182
-0.0120481
-0.0120779
-0.0121073
-0.0121365
-0.0121653
-0.0121941
-0.0122224
-0.0122504
-0.0122781
-0.0123055
-0.0123326
-0.0123594
-0.0123862
-0.0124126
-0.0124391
-0.0124651
-0.0124912
-0.0125168
-0.0125427
-0.0125681
-0.0125935
-0.0126184
-0.0126432
-0.0126679
-0.0126922
-0.0127165
-0.0127401
-0.0127639
-0.012787
-0.0128104
-0.012833
-0.0128558
-0.0128779
-0.0129
-0.0129218
-0.0129433
-0.0129647
-0.0129855
-0.0130066
-0.0130269
-0.0130476
-0.0130675
-0.0130876
-0.0131069
-0.0131261
-0.0131451
-0.0131637
-0.0131825
-0.0132001
-0.0132182
-0.0132353
-0.0132532
-0.0132697
-0.0132865
-0.0133025
-0.0133186
-0.0133346
-0.0133495
-0.013365
-0.013379
-0.0133944
-0.0134079
-0.013422
-0.0134348
-0.0134477
-0.0134608
-0.0134722
-0.0134849
-0.0134954
-0.0135079
-0.0135181
-0.0135291
-0.0135393
-0.0135488
-0.0135594
-0.013567
-0.0135772
-0.0135842
-0.0135936
-0.0136005
-0.0136073
-0.0136149
-0.0136196
-0.0136273
-0.0136305
-0.013637
-0.013641
-0.0136445
-0.0136498
-0.01365
-0.0136559
-0.0136544
-0.0136576
-0.0136566
-0.0136555
-0.0136557
-0.0136501
-0.0136485
-0.0136418
-0.0136336
-0.0136306
-0.0136164
-0.0136212
0.00317328
0.000122489
-0.00599881
-0.010828
-0.0121619
-0.0111144
-0.00965319
-0.00861968
-0.00804259
-0.00775963
-0.00764546
-0.00762936
-0.00767381
-0.00775619
-0.00785786
-0.00796315
-0.00806233
-0.00815081
-0.00822718
-0.00829373
-0.0083554
-0.00841648
-0.00847832
-0.00854036
-0.00860217
-0.00866497
-0.00873106
-0.00880179
-0.00887608
-0.00895188
-0.00902816
-0.00910518
-0.00918286
-0.00926047
-0.00933701
-0.00941201
-0.00948501
-0.00955576
-0.00962422
-0.00969091
-0.00975627
-0.00982027
-0.00988234
-0.00994229
-0.0100004
-0.0100573
-0.0101134
-0.0101684
-0.0102218
-0.0102737
-0.0103244
-0.0103743
-0.0104233
-0.0104713
-0.0105184
-0.0105648
-0.0106106
-0.0106559
-0.0107005
-0.0107443
-0.0107874
-0.0108296
-0.0108713
-0.0109124
-0.0109527
-0.0109919
-0.0110303
-0.0110679
-0.0111051
-0.0111416
-0.0111775
-0.0112126
-0.0112474
-0.0112818
-0.0113157
-0.0113491
-0.0113822
-0.0114151
-0.0114479
-0.0114807
-0.0115131
-0.0115454
-0.0115776
-0.01161
-0.0116424
-0.0116747
-0.0117067
-0.0117386
-0.0117704
-0.0118022
-0.0118337
-0.0118649
-0.011896
-0.0119268
-0.0119575
-0.0119878
-0.012018
-0.0120479
-0.0120778
-0.0121071
-0.0121364
-0.0121652
-0.0121939
-0.0122223
-0.0122503
-0.012278
-0.0123053
-0.0123325
-0.0123593
-0.0123861
-0.0124125
-0.012439
-0.012465
-0.0124911
-0.0125167
-0.0125426
-0.012568
-0.0125934
-0.0126184
-0.0126431
-0.0126678
-0.0126921
-0.0127164
-0.0127401
-0.0127638
-0.0127869
-0.0128103
-0.012833
-0.0128557
-0.0128778
-0.0128999
-0.0129217
-0.0129432
-0.0129647
-0.0129855
-0.0130066
-0.0130269
-0.0130476
-0.0130674
-0.0130876
-0.0131069
-0.0131261
-0.013145
-0.0131637
-0.0131824
-0.0132
-0.0132182
-0.0132353
-0.0132532
-0.0132697
-0.0132865
-0.0133025
-0.0133185
-0.0133345
-0.0133494
-0.013365
-0.013379
-0.0133944
-0.0134079
-0.0134219
-0.0134347
-0.0134477
-0.0134608
-0.0134722
-0.0134848
-0.0134954
-0.0135079
-0.013518
-0.013529
-0.0135393
-0.0135488
-0.0135593
-0.013567
-0.0135772
-0.0135842
-0.0135935
-0.0136005
-0.0136073
-0.0136149
-0.0136196
-0.0136272
-0.0136304
-0.013637
-0.013641
-0.0136445
-0.0136498
-0.01365
-0.0136559
-0.0136544
-0.0136576
-0.0136566
-0.0136555
-0.0136557
-0.01365
-0.0136485
-0.0136418
-0.0136336
-0.0136306
-0.0136164
-0.0136212
0.00248731
-5.25801e-05
-0.00574881
-0.0104558
-0.0119259
-0.0110192
-0.0096033
-0.00857577
-0.0080037
-0.00772857
-0.00762161
-0.00761095
-0.00765928
-0.00774441
-0.00784798
-0.00795463
-0.00805482
-0.00814414
-0.0082213
-0.0082886
-0.00835092
-0.0084125
-0.00847473
-0.00853709
-0.0085992
-0.00866229
-0.00872863
-0.00879954
-0.00887398
-0.0089499
-0.00902631
-0.00910345
-0.00918125
-0.00925895
-0.00933558
-0.00941064
-0.00948372
-0.00955454
-0.00962308
-0.00968983
-0.00975525
-0.0098193
-0.00988141
-0.00994139
-0.00999952
-0.0100565
-0.0101126
-0.0101676
-0.0102211
-0.010273
-0.0103238
-0.0103736
-0.0104227
-0.0104707
-0.0105179
-0.0105642
-0.0106101
-0.0106554
-0.0107
-0.0107439
-0.0107869
-0.0108292
-0.0108709
-0.010912
-0.0109523
-0.0109916
-0.0110299
-0.0110675
-0.0111047
-0.0111413
-0.0111771
-0.0112123
-0.0112471
-0.0112815
-0.0113154
-0.0113489
-0.0113819
-0.0114149
-0.0114477
-0.0114804
-0.0115128
-0.0115452
-0.0115774
-0.0116098
-0.0116422
-0.0116745
-0.0117065
-0.0117384
-0.0117702
-0.011802
-0.0118335
-0.0118647
-0.0118958
-0.0119266
-0.0119573
-0.0119876
-0.0120179
-0.0120478
-0.0120776
-0.012107
-0.0121362
-0.0121651
-0.0121938
-0.0122221
-0.0122502
-0.0122778
-0.0123052
-0.0123324
-0.0123592
-0.012386
-0.0124124
-0.0124389
-0.0124649
-0.012491
-0.0125166
-0.0125425
-0.0125679
-0.0125933
-0.0126183
-0.012643
-0.0126677
-0.012692
-0.0127163
-0.01274
-0.0127637
-0.0127869