/*--------------------------------*- C++ -*----------------------------------*\
| =========                 |                                                 |
| \\      /  F ield         | OpenFOAM: The Open Source CFD Toolbox           |
|  \\    /   O peration     | Version:  v2012                                 |
|   \\  /    A nd           | Website:  www.openfoam.com                      |
|    \\/     M anipulation  |                                                 |
\*---------------------------------------------------------------------------*/
FoamFile
{
    version     2.0;
    format      ascii;
    class       surfaceScalarField;
    location    "4.15";
    object      phi;
}
// * * * * * * * * * * * * * * * * * * * * * * * * * * * * * * * * * * * * * //

dimensions      [0 3 -1 0 0 0 0];
oriented        oriented;


internalField   nonuniform List<scalar> 
34900
(
1.17726e-06
5.72543e-07
1.14795e-06
-5.53352e-07
1.16217e-06
1.57684e-07
1.14811e-06
8.77288e-08
1.15438e-06
-1.06366e-07
1.14701e-06
4.95754e-08
1.15552e-06
2.76211e-08
1.14543e-06
-1.98941e-08
1.15317e-06
9.43403e-09
1.1438e-06
-4.93214e-08
1.15227e-06
9.63508e-09
1.14304e-06
-4.79771e-08
1.15189e-06
1.91722e-08
1.14236e-06
-2.3947e-08
1.15133e-06
4.14891e-08
1.14085e-06
6.2695e-09
1.14949e-06
6.34772e-08
1.13733e-06
1.68005e-08
1.14098e-06
8.56663e-08
2.69915e-08
1.1057e-06
1.22879e-06
5.68018e-07
1.20007e-06
-5.24638e-07
1.2122e-06
1.45557e-07
1.20265e-06
9.72798e-08
1.20721e-06
-1.10924e-07
1.20323e-06
5.35565e-08
1.20924e-06
2.16052e-08
1.20276e-06
-1.34134e-08
1.20663e-06
5.56655e-09
1.20216e-06
-4.48516e-08
1.20514e-06
6.65366e-09
1.20281e-06
-4.56445e-08
1.2036e-06
1.83774e-08
1.20446e-06
-2.48052e-08
1.20099e-06
4.49581e-08
1.20639e-06
8.71194e-10
1.1959e-06
7.39628e-08
1.20652e-06
6.18975e-09
1.18303e-06
1.09154e-07
2.11611e-08
1.18886e-06
1.28286e-06
5.67942e-07
1.25625e-06
-4.98025e-07
1.26275e-06
1.39055e-07
1.26084e-06
9.91929e-08
1.2611e-06
-1.11192e-07
1.26309e-06
5.15658e-08
1.26404e-06
2.06634e-08
1.26448e-06
-1.38619e-08
1.26223e-06
7.82564e-09
1.26481e-06
-4.74319e-08
1.26098e-06
1.04798e-08
1.26584e-06
-5.05052e-08
1.25981e-06
2.44125e-08
1.26699e-06
-3.19889e-08
1.2586e-06
5.33481e-08
1.26692e-06
-7.45204e-09
1.25731e-06
8.35763e-08
1.26284e-06
6.57346e-10
1.25244e-06
1.19555e-07
3.31144e-08
1.24049e-06
1.3407e-06
5.71344e-07
1.31868e-06
-4.76007e-07
1.31716e-06
1.40574e-07
1.32345e-06
9.29093e-08
1.31873e-06
-1.06472e-07
1.32524e-06
4.50492e-08
1.3224e-06
2.35039e-08
1.32796e-06
-1.94146e-08
1.3223e-06
1.34818e-08
1.32832e-06
-5.34498e-08
1.32243e-06
1.6369e-08
1.32859e-06
-5.6666e-08
1.32279e-06
3.02091e-08
1.32846e-06
-3.76516e-08
1.32351e-06
5.82936e-08
1.32746e-06
-1.13974e-08
1.32417e-06
8.68635e-08
1.32338e-06
1.44963e-09
1.32028e-06
1.22654e-07
4.89292e-08
1.30446e-06
1.40323e-06
5.76472e-07
1.38701e-06
-4.59792e-07
1.37808e-06
1.49501e-07
1.39017e-06
8.08254e-08
1.38224e-06
-9.8547e-08
1.39002e-06
3.72682e-08
1.38645e-06
2.70807e-08
1.39344e-06
-2.64105e-08
1.38827e-06
1.86599e-08
1.39382e-06
-5.90067e-08
1.38971e-06
2.04797e-08
1.39383e-06
-6.07828e-08
1.39084e-06
3.31999e-08
1.39354e-06
-4.03563e-08
1.3918e-06
6.00331e-08
1.39293e-06
-1.25275e-08
1.39226e-06
8.75345e-08
1.38921e-06
4.50617e-09
1.38801e-06
1.23849e-07
6.47168e-08
1.37222e-06
1.47084e-06
5.81307e-07
1.45999e-06
-4.48938e-07
1.44673e-06
1.62757e-07
1.46078e-06
6.67753e-08
1.45244e-06
-9.0204e-08
1.45889e-06
3.08108e-08
1.45681e-06
2.91616e-08
1.46282e-06
-3.24143e-08
1.45985e-06
2.16238e-08
1.46364e-06
-6.27912e-08
1.46173e-06
2.23874e-08
1.46383e-06
-6.28772e-08
1.46259e-06
3.44328e-08
1.46357e-06
-4.13367e-08
1.46305e-06
6.05575e-08
1.46292e-06
-1.24024e-08
1.46313e-06
8.73264e-08
1.45868e-06
8.95282e-09
1.45876e-06
1.2377e-07
8.05541e-08
1.44293e-06
1.54332e-06
5.84202e-07
1.53636e-06
-4.41976e-07
1.52253e-06
1.76586e-07
1.53535e-06
5.39571e-08
1.52846e-06
-8.33126e-08
1.53287e-06
2.64018e-08
1.53257e-06
2.94579e-08
1.53705e-06
-3.68929e-08
1.53589e-06
2.27836e-08
1.53831e-06
-6.52139e-08
1.53756e-06
2.31361e-08
1.53848e-06
-6.37963e-08
1.53784e-06
3.50784e-08
1.53787e-06
-4.13726e-08
1.53779e-06
6.06453e-08
1.53667e-06
-1.12893e-08
1.53755e-06
8.64485e-08
1.53166e-06
1.48403e-08
1.53284e-06
1.22593e-07
9.61628e-08
1.51723e-06
1.61996e-06
5.8437e-07
1.61528e-06
-4.37292e-07
1.6036e-06
1.88259e-07
1.61371e-06
4.38528e-08
1.60862e-06
-7.82272e-08
1.6116e-06
2.34198e-08
1.61227e-06
2.87917e-08
1.61562e-06
-4.02387e-08
1.61529e-06
2.31143e-08
1.61698e-06
-6.69035e-08
1.61661e-06
2.35038e-08
1.61683e-06
-6.40219e-08
1.61636e-06
3.55494e-08
1.61565e-06
-4.06569e-08
1.61592e-06
6.03751e-08
1.61375e-06
-9.12358e-09
1.61531e-06
8.48856e-08
1.60804e-06
2.2114e-08
1.60998e-06
1.20658e-07
1.11038e-07
1.5951e-06
1.70002e-06
5.81924e-07
1.69638e-06
-4.33655e-07
1.68797e-06
1.96674e-07
1.69537e-06
3.64498e-08
1.69157e-06
-7.44309e-08
1.694e-06
2.09932e-08
1.69484e-06
2.79507e-08
1.6975e-06
-4.28935e-08
1.69737e-06
2.32374e-08
1.69866e-06
-6.8188e-08
1.69843e-06
2.3737e-08
1.69813e-06
-6.37267e-08
1.69785e-06
3.58346e-08
1.6964e-06
-3.92114e-08
1.69714e-06
5.96373e-08
1.69388e-06
-5.86407e-09
1.69612e-06
8.26431e-08
1.68765e-06
3.05798e-08
1.68996e-06
1.18353e-07
1.2469e-07
1.67631e-06
1.78316e-06
5.77488e-07
1.77979e-06
-4.30289e-07
1.77453e-06
2.0194e-07
1.77992e-06
3.10552e-08
1.77682e-06
-7.1332e-08
1.7792e-06
1.86161e-08
1.77987e-06
2.72762e-08
1.78208e-06
-4.51033e-08
1.78196e-06
2.33615e-08
1.78294e-06
-6.91737e-08
1.78288e-06
2.37999e-08
1.78213e-06
-6.29773e-08
1.78219e-06
3.57751e-08
1.78002e-06
-3.70436e-08
1.78138e-06
5.82841e-08
1.77706e-06
-1.54278e-09
1.77991e-06
7.97856e-08
1.77058e-06
3.99174e-08
1.77282e-06
1.16106e-07
1.36687e-07
1.76083e-06
1.8695e-06
5.71732e-07
1.86594e-06
-4.26729e-07
1.86322e-06
2.04668e-07
1.86732e-06
2.69553e-08
1.86458e-06
-6.86e-08
1.86703e-06
1.61676e-08
1.86752e-06
2.67871e-08
1.86939e-06
-4.6971e-08
1.86927e-06
2.34785e-08
1.86997e-06
-6.9871e-08
1.8702e-06
2.3567e-08
1.86902e-06
-6.17976e-08
1.86962e-06
3.51816e-08
1.86674e-06
-3.41714e-08
1.86884e-06
5.61916e-08
1.86357e-06
3.72038e-09
1.86689e-06
7.6466e-08
1.85711e-06
4.96961e-08
1.85886e-06
1.14358e-07
1.46695e-07
1.84885e-06
1.95946e-06
5.65113e-07
1.95542e-06
-4.22692e-07
1.95461e-06
2.05482e-07
1.95788e-06
2.36816e-08
1.95542e-06
-6.61392e-08
1.95787e-06
1.37133e-08
1.95828e-06
2.63801e-08
1.95984e-06
-4.85257e-08
1.95981e-06
2.35031e-08
1.96018e-06
-7.02417e-08
1.96084e-06
2.29049e-08
1.95922e-06
-6.01701e-08
1.96051e-06
3.38905e-08
1.95696e-06
-3.06224e-08
1.95984e-06
5.33078e-08
1.95385e-06
9.71612e-09
1.95738e-06
7.29316e-08
1.94765e-06
5.94264e-08
1.94853e-06
1.13482e-07
1.54543e-07
1.94068e-06
2.05345e-06
5.57857e-07
2.04877e-06
-4.18015e-07
2.04942e-06
2.04834e-07
2.05209e-06
2.10072e-08
2.04993e-06
-6.39739e-08
2.05228e-06
1.13636e-08
2.05273e-06
2.59284e-08
2.05396e-06
-4.97542e-08
2.05413e-06
2.33271e-08
2.0541e-06
-7.0213e-08
2.05531e-06
2.16982e-08
2.05318e-06
-5.80403e-08
2.05527e-06
3.17969e-08
2.05109e-06
-2.64399e-08
2.05471e-06
4.9687e-08
2.04827e-06
1.61608e-08
2.05169e-06
6.95083e-08
2.04248e-06
6.86316e-08
2.04225e-06
1.13718e-07
1.60257e-07
2.03654e-06
2.15182e-06
5.50042e-07
2.14642e-06
-4.12617e-07
2.14825e-06
2.03003e-07
2.1504e-06
1.88584e-08
2.1486e-06
-6.21744e-08
2.15073e-06
9.22707e-09
2.15136e-06
2.53044e-08
2.15222e-06
-5.06148e-08
2.15271e-06
2.28308e-08
2.15219e-06
-6.96899e-08
2.15404e-06
1.98534e-08
2.15134e-06
-5.534e-08
2.15426e-06
2.88719e-08
2.14952e-06
-2.17035e-08
2.15371e-06
4.55022e-08
2.14714e-06
2.27256e-08
2.15009e-06
6.65603e-08
2.14181e-06
7.69155e-08
2.14038e-06
1.15146e-07
1.64055e-07
2.13658e-06
2.25485e-06
5.41684e-07
2.24869e-06
-4.0646e-07
2.25155e-06
2.00145e-07
2.25317e-06
1.72395e-08
2.25182e-06
-6.0829e-08
2.25364e-06
7.4104e-09
2.25456e-06
2.43781e-08
2.255e-06
-5.10463e-08
2.25594e-06
2.18876e-08
2.25483e-06
-6.85757e-08
2.25738e-06
1.73028e-08
2.25406e-06
-5.20243e-08
2.25776e-06
2.51723e-08
2.25261e-06
-1.6556e-08
2.25708e-06
4.10297e-08
2.25074e-06
2.9074e-08
2.25286e-06
6.44347e-08
2.24577e-06
8.40081e-08
2.24322e-06
1.17696e-07
1.66307e-07
2.24097e-06
2.36278e-06
5.32775e-07
2.35584e-06
-3.99518e-07
2.35965e-06
1.96333e-07
2.3607e-06
1.61934e-08
2.35991e-06
-6.00379e-08
2.3613e-06
6.02407e-09
2.36266e-06
2.30183e-08
2.36258e-06
-5.09758e-08
2.3641e-06
2.03741e-08
2.36231e-06
-6.67927e-08
2.3656e-06
1.40144e-08
2.36169e-06
-4.8107e-08
2.36602e-06
2.08406e-08
2.36068e-06
-1.12145e-08
2.3651e-06
3.66092e-08
2.35927e-06
3.49036e-08
2.36031e-06
6.33937e-08
2.35451e-06
8.98067e-08
2.35105e-06
1.21154e-07
1.6747e-07
2.34989e-06
2.47587e-06
5.23305e-07
2.46811e-06
-3.91761e-07
2.47286e-06
1.91584e-07
2.47327e-06
1.57856e-08
2.47314e-06
-5.99096e-08
2.47398e-06
5.18191e-09
2.4759e-06
2.10976e-08
2.47525e-06
-5.03281e-08
2.47744e-06
1.8187e-08
2.47495e-06
-6.43013e-08
2.47895e-06
1.00083e-08
2.47453e-06
-4.36864e-08
2.47927e-06
1.61022e-08
2.47402e-06
-5.96362e-09
2.47804e-06
3.25933e-08
2.47296e-06
3.998e-08
2.47279e-06
6.35655e-08
2.4682e-06
9.43927e-08
2.46418e-06
1.25171e-07
1.68021e-07
2.46363e-06
2.59434e-06
5.13255e-07
2.58573e-06
-3.83144e-07
2.59144e-06
1.85869e-07
2.59113e-06
1.60976e-08
2.59178e-06
-6.05578e-08
2.59196e-06
4.99584e-09
2.59456e-06
1.85008e-08
2.59327e-06
-4.90396e-08
2.5962e-06
1.52624e-08
2.59302e-06
-6.11198e-08
2.59765e-06
5.37755e-09
2.59292e-06
-3.89561e-08
2.59777e-06
1.12436e-08
2.59292e-06
-1.11222e-09
2.59623e-06
2.92882e-08
2.59204e-06
4.41685e-08
2.59069e-06
6.49111e-08
2.58708e-06
9.80115e-08
2.58291e-06
1.29339e-07
1.68387e-07
2.58254e-06
2.71848e-06
5.02606e-07
2.70894e-06
-3.7361e-07
2.71569e-06
1.79125e-07
2.71456e-06
1.72223e-08
2.7161e-06
-6.20965e-08
2.71553e-06
5.56576e-09
2.71889e-06
1.51379e-08
2.71693e-06
-4.7076e-08
2.7206e-06
1.15957e-08
2.71682e-06
-5.73407e-08
2.7219e-06
2.98836e-10
2.71714e-06
-3.41943e-08
2.72181e-06
6.57287e-09
2.71763e-06
3.06562e-09
2.72002e-06
2.68982e-08
2.71672e-06
4.74638e-08
2.71438e-06
6.72491e-08
2.71141e-06
1.00985e-07
2.70748e-06
1.33273e-07
1.6887e-07
2.707e-06
2.84854e-06
4.91335e-07
2.83802e-06
-3.63088e-07
2.84588e-06
1.71263e-07
2.84385e-06
1.92565e-08
2.84638e-06
-6.46327e-08
2.84498e-06
6.97048e-09
2.84916e-06
1.09564e-08
2.84654e-06
-4.44529e-08
2.85087e-06
7.25978e-09
2.84668e-06
-5.31464e-08
2.85194e-06
-4.96583e-09
2.84748e-06
-2.97334e-08
2.85167e-06
2.38081e-09
2.84837e-06
6.37093e-09
2.84978e-06
2.54907e-08
2.84724e-06
5.00001e-08
2.84417e-06
7.03175e-08
2.84154e-06
1.03611e-07
2.83812e-06
1.36699e-07
1.69604e-07
2.83738e-06
2.98481e-06
4.79418e-07
2.97322e-06
-3.51499e-07
2.98231e-06
1.62176e-07
2.97927e-06
2.22935e-08
2.9829e-06
-6.82566e-08
2.98061e-06
9.25363e-09
2.98561e-06
5.95987e-09
2.98242e-06
-4.12581e-08
2.98725e-06
2.42177e-09
2.98292e-06
-4.88119e-08
2.98805e-06
-1.00931e-08
2.98422e-06
-2.59109e-08
2.98772e-06
-1.11215e-09
2.98536e-06
8.73048e-09
2.98588e-06
2.49694e-08
2.98385e-06
5.20268e-08
2.98032e-06
7.38483e-08
2.97782e-06
1.06115e-07
2.97503e-06
1.39484e-07
1.70564e-07
2.97407e-06
3.12759e-06
4.66833e-07
3.11485e-06
-3.38756e-07
3.12528e-06
1.5175e-07
3.12115e-06
2.64139e-08
3.12593e-06
-7.30295e-08
3.12277e-06
1.24067e-08
3.12851e-06
2.26984e-10
3.12492e-06
-3.76734e-08
3.12999e-06
-2.64875e-09
3.12587e-06
-4.46879e-08
3.13052e-06
-1.47424e-08
3.12762e-06
-2.30086e-08
3.13031e-06
-3.80657e-09
3.12883e-06
1.02074e-08
3.1287e-06
2.51e-08
3.1269e-06
5.3835e-08
3.1231e-06
7.7648e-08
3.12052e-06
1.08693e-07
3.11843e-06
1.41572e-07
1.71619e-07
3.11737e-06
3.27718e-06
4.53558e-07
3.2632e-06
-3.24769e-07
3.27508e-06
1.39871e-07
3.26982e-06
3.16717e-08
3.27576e-06
-7.89666e-08
3.27181e-06
1.63503e-08
3.27811e-06
-6.06972e-09
3.27442e-06
-3.39883e-08
3.27936e-06
-7.58217e-09
3.27586e-06
-4.11876e-08
3.27969e-06
-1.85773e-08
3.2779e-06
-2.12156e-08
3.27983e-06
-5.74125e-09
3.27909e-06
1.09466e-08
3.27862e-06
2.55738e-08
3.27682e-06
5.56352e-08
3.27274e-06
8.17236e-08
3.26974e-06
1.11699e-07
3.2686e-06
1.42705e-07
1.72762e-07
3.26746e-06
3.43391e-06
4.3958e-07
3.41859e-06
-3.09451e-07
3.43202e-06
1.26443e-07
3.42562e-06
3.80762e-08
3.43266e-06
-8.60146e-08
3.42811e-06
2.09064e-08
3.43467e-06
-1.26353e-08
3.43131e-06
-3.06216e-08
3.43563e-06
-1.19102e-08
3.4332e-06
-3.87525e-08
3.43594e-06
-2.13209e-08
3.43532e-06
-2.05944e-08
3.43663e-06
-7.05135e-09
3.4365e-06
1.10825e-08
3.43607e-06
2.60011e-08
3.43454e-06
5.71656e-08
3.42963e-06
8.66305e-08
3.42515e-06
1.1618e-07
3.42516e-06
1.42695e-07
1.73852e-07
3.42407e-06
3.5981e-06
4.24889e-07
3.58138e-06
-2.92729e-07
3.59642e-06
1.11401e-07
3.58893e-06
4.55731e-08
3.59694e-06
-9.40332e-08
3.59206e-06
2.57866e-08
3.59849e-06
-1.90646e-08
3.59594e-06
-2.80685e-08
3.5992e-06
-1.51683e-08
3.59814e-06
-3.76997e-08
3.59975e-06
-2.29211e-08
3.60011e-06
-2.09611e-08
3.6011e-06
-8.04435e-09
3.60141e-06
1.07797e-08
3.60157e-06
2.58346e-08
3.60323e-06
5.55142e-08
3.60396e-06
8.58959e-08
3.59844e-06
1.21697e-07
3.58279e-06
1.58352e-07
1.70308e-07
3.58633e-06
3.77011e-06
4.09486e-07
3.75194e-06
-2.74558e-07
3.7686e-06
9.47413e-08
3.76015e-06
5.40223e-08
3.76889e-06
-1.02779e-07
3.76409e-06
3.05937e-08
3.76991e-06
-2.48851e-08
3.76864e-06
-2.68017e-08
3.7705e-06
-1.70297e-08
3.77085e-06
-3.80456e-08
3.77165e-06
-2.37271e-08
3.77248e-06
-2.17863e-08
3.77378e-06
-9.35013e-09
3.77445e-06
1.01097e-08
3.77579e-06
2.45029e-08
3.78142e-06
4.98804e-08
3.78713e-06
8.01816e-08
3.79542e-06
1.13408e-07
3.80868e-06
1.45096e-07
1.92585e-07
3.7864e-06
3.95029e-06
3.93388e-07
3.93066e-06
-2.54936e-07
3.94886e-06
7.65444e-08
3.93972e-06
6.31665e-08
3.94882e-06
-1.11878e-07
3.94461e-06
3.48004e-08
3.94928e-06
-2.95583e-08
3.94972e-06
-2.7243e-08
3.95004e-06
-1.7346e-08
3.95154e-06
-3.95419e-08
3.9521e-06
-2.42943e-08
3.95283e-06
-2.25149e-08
3.95504e-06
-1.1556e-08
3.95713e-06
8.01729e-09
3.95769e-06
2.3942e-08
3.95055e-06
5.70198e-08
3.94115e-06
8.95806e-08
3.93503e-06
1.19528e-07
3.9267e-06
1.5343e-07
1.85082e-07
3.9342e-06
4.13901e-06
3.76626e-07
4.118e-06
-2.33921e-07
4.13753e-06
5.70069e-08
4.12808e-06
7.26176e-08
4.13705e-06
-1.20849e-07
4.13405e-06
3.78089e-08
4.13707e-06
-3.2582e-08
4.13947e-06
-2.96391e-08
4.13836e-06
-1.62365e-08
4.14051e-06
-4.16944e-08
4.14146e-06
-2.52412e-08
4.14176e-06
-2.2815e-08
4.14294e-06
-1.27376e-08
4.13847e-06
1.2485e-08
4.13009e-06
3.23177e-08
4.12732e-06
5.97895e-08
4.12411e-06
9.27989e-08
4.11943e-06
1.24203e-07
4.11684e-06
1.56022e-07
1.80539e-07
4.12138e-06
4.33668e-06
3.59252e-07
4.31441e-06
-2.1165e-07
4.33494e-06
3.64689e-08
4.32571e-06
8.18559e-08
4.334e-06
-1.29145e-07
4.33278e-06
3.90336e-08
4.33381e-06
-3.36168e-08
4.3381e-06
-3.39257e-08
4.33602e-06
-1.41553e-08
4.33811e-06
-4.37864e-08
4.33932e-06
-2.64545e-08
4.33581e-06
-1.93026e-08
4.33225e-06
-9.1797e-09
4.32795e-06
1.67887e-08
4.3226e-06
3.76618e-08
4.31915e-06
6.32495e-08
4.31667e-06
9.52781e-08
4.31391e-06
1.26962e-07
4.31395e-06
1.55981e-07
1.76976e-07
4.31751e-06
4.54369e-06
3.41338e-07
4.52039e-06
-1.88351e-07
4.54142e-06
1.54382e-08
4.53305e-06
9.0223e-08
4.54009e-06
-1.36182e-07
4.54117e-06
3.79547e-08
4.5401e-06
-3.25497e-08
4.54589e-06
-3.97163e-08
4.54346e-06
-1.17234e-08
4.5439e-06
-4.423e-08
4.54332e-06
-2.58745e-08
4.53679e-06
-1.27668e-08
4.53325e-06
-5.64384e-09
4.5297e-06
2.03376e-08
4.52467e-06
4.26894e-08
4.52099e-06
6.69371e-08
4.51904e-06
9.72225e-08
4.5177e-06
1.28307e-07
4.51948e-06
1.54196e-07
1.74518e-07
4.52194e-06
4.76047e-06
3.2298e-07
4.73647e-06
-1.64346e-07
4.75733e-06
-5.42566e-09
4.75057e-06
9.69891e-08
4.75582e-06
-1.41441e-07
4.75951e-06
3.42668e-08
4.75657e-06
-2.96057e-08
4.76315e-06
-4.62949e-08
4.76054e-06
-9.11437e-09
4.75715e-06
-4.08461e-08
4.75539e-06
-2.41124e-08
4.74856e-06
-5.93077e-09
4.74441e-06
-1.49448e-09
4.74164e-06
2.31068e-08
4.73694e-06
4.73911e-08
4.73307e-06
7.08076e-08
4.73143e-06
9.88546e-08
4.73141e-06
1.28335e-07
4.73333e-06
1.52271e-07
1.72098e-07
4.73575e-06
4.98748e-06
3.04293e-07
4.96318e-06
-1.40047e-07
4.98309e-06
-2.53285e-08
4.97866e-06
1.01415e-07
4.98179e-06
-1.44571e-07
4.98811e-06
2.79526e-08
4.98378e-06
-2.52753e-08
4.98996e-06
-5.24809e-08
4.98622e-06
-5.36815e-09
4.97935e-06
-3.39801e-08
4.97763e-06
-2.23889e-08
4.97107e-06
6.23852e-10
4.96617e-06
3.4086e-09
4.96389e-06
2.53835e-08
4.95979e-06
5.14924e-08
4.95582e-06
7.47793e-08
4.95435e-06
1.00323e-07
4.95536e-06
1.27323e-07
4.95701e-06
1.50625e-07
1.69259e-07
4.95985e-06
5.2252e-06
2.85409e-07
5.20109e-06
-1.15936e-07
5.21917e-06
-4.34104e-08
5.21769e-06
1.02892e-07
5.21865e-06
-1.4553e-07
5.22733e-06
1.9277e-08
5.22204e-06
-1.99886e-08
5.22635e-06
-5.67922e-08
5.22064e-06
3.4402e-10
5.21208e-06
-2.54173e-08
5.21053e-06
-2.08398e-08
5.20481e-06
6.34566e-09
5.19907e-06
9.15045e-09
5.19689e-06
2.75559e-08
5.19359e-06
5.47998e-08
5.1897e-06
7.86618e-08
5.1884e-06
1.01627e-07
5.18986e-06
1.25864e-07
5.19173e-06
1.48752e-07
1.66107e-07
5.19488e-06
5.47413e-06
2.66465e-07
5.45073e-06
-9.25296e-08
5.46624e-06
-5.89201e-08
5.4679e-06
1.01233e-07
5.4671e-06
-1.4473e-07
5.47754e-06
8.83373e-09
5.47149e-06
-1.39356e-08
5.47178e-06
-5.7085e-08
5.46581e-06
6.3142e-09
5.45627e-06
-1.58788e-08
5.4547e-06
-1.92687e-08
5.4501e-06
1.09402e-08
5.44363e-06
1.56236e-08
5.4412e-06
2.99845e-08
5.43872e-06
5.72832e-08
5.4352e-06
8.21804e-08
5.43406e-06
1.02763e-07
5.43556e-06
1.24374e-07
5.43793e-06
1.46379e-07
1.62635e-07
5.4414e-06
5.73483e-06
2.47596e-07
5.71265e-06
-7.03492e-08
5.72506e-06
-7.1338e-08
5.72948e-06
9.68135e-08
5.7274e-06
-1.42647e-07
5.73794e-06
-1.70479e-09
5.72896e-06
-4.9552e-09
5.72721e-06
-5.5337e-08
5.7227e-06
1.0823e-08
5.71272e-06
-5.89635e-09
5.71067e-06
-1.72187e-08
5.7073e-06
1.43081e-08
5.70043e-06
2.24941e-08
5.69743e-06
3.29848e-08
5.69566e-06
5.90515e-08
5.6928e-06
8.50455e-08
5.69182e-06
1.0374e-07
5.69318e-06
1.23016e-07
5.69605e-06
1.43502e-07
1.58776e-07
5.69991e-06
6.00787e-06
2.28923e-07
5.98743e-06
-4.99108e-08
5.99653e-06
-8.04358e-08
6.0026e-06
9.07355e-08
5.99835e-06
-1.38389e-07
6.00651e-06
-9.87392e-09
5.99702e-06
4.54325e-09
5.99481e-06
-5.31275e-08
5.99229e-06
1.334e-08
5.98196e-06
4.43769e-09
5.97905e-06
-1.4316e-08
5.97681e-06
1.65491e-08
5.97002e-06
2.92857e-08
5.96624e-06
3.67656e-08
5.96496e-06
6.03355e-08
5.963e-06
8.70053e-08
5.96219e-06
1.04547e-07
5.96339e-06
1.21811e-07
5.96666e-06
1.40238e-07
1.54496e-07
5.97094e-06
6.29387e-06
2.10546e-07
6.27557e-06
-3.16167e-08
6.28152e-06
-8.63846e-08
6.28756e-06
8.46923e-08
6.2806e-06
-1.31431e-07
6.2884e-06
-1.76711e-08
6.27926e-06
1.36825e-08
6.27572e-06
-4.95876e-08
6.27488e-06
1.41856e-08
6.2646e-06
1.47181e-08
6.2605e-06
-1.02217e-08
6.25914e-06
1.79089e-08
6.25292e-06
3.55094e-08
6.24834e-06
4.13429e-08
6.24722e-06
6.14589e-08
6.24632e-06
8.79015e-08
6.24572e-06
1.05149e-07
6.24685e-06
1.20681e-07
6.25035e-06
1.36738e-07
1.49814e-07
6.25503e-06
6.59347e-06
1.92549e-07
6.57755e-06
-1.57005e-08
6.58076e-06
-8.95913e-08
6.58572e-06
7.97255e-08
6.5771e-06
-1.22802e-07
6.58457e-06
-2.51451e-08
6.57587e-06
2.23801e-08
6.57047e-06
-4.41847e-08
6.57095e-06
1.37048e-08
6.56123e-06
2.44388e-08
6.55571e-06
-4.70376e-09
6.55488e-06
1.87422e-08
6.54962e-06
4.07625e-08
6.54445e-06
4.65223e-08
6.54316e-06
6.2746e-08
6.54329e-06
8.77747e-08
6.54303e-06
1.05404e-07
6.54419e-06
1.19523e-07
6.54778e-06
1.33143e-07
1.44798e-07
6.5528e-06
6.90734e-06
1.74995e-07
6.8938e-06
-2.1587e-09
6.89491e-06
-9.06989e-08
6.89874e-06
7.58934e-08
6.88831e-06
-1.12367e-07
6.8951e-06
-3.19407e-08
6.88712e-06
3.03642e-08
6.87975e-06
-3.68184e-08
6.88106e-06
1.23917e-08
6.87244e-06
3.30675e-08
6.86544e-06
2.29241e-09
6.86469e-06
1.94907e-08
6.86065e-06
4.4806e-08
6.85523e-06
5.19388e-08
6.85356e-06
6.44206e-08
6.85445e-06
8.68796e-08
6.85474e-06
1.05114e-07
6.85604e-06
1.1822e-07
6.85964e-06
1.29542e-07
1.3955e-07
6.86489e-06
7.2362e-06
1.57935e-07
7.22485e-06
9.19117e-09
7.22466e-06
-9.0517e-08
7.22751e-06
7.30439e-08
7.21505e-06
-9.98995e-08
7.22055e-06
-3.74429e-08
7.21353e-06
3.7387e-08
7.2043e-06
-2.75968e-08
7.20589e-06
1.08107e-08
7.19876e-06
4.01951e-08
7.1905e-06
1.05549e-08
7.18934e-06
2.06412e-08
7.18653e-06
4.76223e-08
7.18133e-06
5.71396e-08
7.17922e-06
6.65276e-08
7.1805e-06
8.56007e-08
7.18149e-06
1.04129e-07
7.18308e-06
1.16629e-07
7.18666e-06
1.25963e-07
1.34189e-07
7.19202e-06
7.58076e-06
1.41404e-07
7.5714e-06
1.85502e-08
7.57064e-06
-8.97574e-08
7.57297e-06
7.0713e-08
7.5582e-06
-8.51337e-08
7.56158e-06
-4.08213e-08
7.55569e-06
4.32836e-08
7.54493e-06
-1.6842e-08
7.54616e-06
9.5796e-09
7.54074e-06
4.56195e-08
7.53168e-06
1.96089e-08
7.52969e-06
2.26375e-08
7.52791e-06
4.94e-08
7.52333e-06
6.17153e-08
7.52094e-06
6.89256e-08
7.52223e-06
8.43103e-08
7.52392e-06
1.02431e-07
7.52595e-06
1.14606e-07
7.52955e-06
1.22364e-07
1.28811e-07
7.53492e-06
7.94178e-06
1.2543e-07
7.9341e-06
2.62347e-08
7.93355e-06
-8.92059e-08
7.9363e-06
6.79664e-08
7.91858e-06
-6.74192e-08
7.91892e-06
-4.1165e-08
7.91426e-06
4.79449e-08
7.90243e-06
-5.01035e-09
7.90274e-06
9.27165e-09
7.899e-06
4.93608e-08
7.88972e-06
2.8885e-08
7.88662e-06
2.57388e-08
7.88553e-06
5.04869e-08
7.88186e-06
6.53886e-08
7.87944e-06
7.1347e-08
7.8805e-06
8.32521e-08
7.88279e-06
1.00138e-07
7.88535e-06
1.12048e-07
7.88905e-06
1.18662e-07
1.23467e-07
7.89439e-06
8.32004e-06
1.1007e-07
8.31369e-06
3.25868e-08
8.31533e-06
-9.08471e-08
8.3187e-06
6.45923e-08
8.29678e-06
-4.5491e-08
8.2934e-06
-3.77867e-08
8.29001e-06
5.13352e-08
8.27763e-06
7.36596e-09
8.27652e-06
1.03874e-08
8.27423e-06
5.16479e-08
8.26529e-06
3.78287e-08
8.26105e-06
2.99733e-08
8.26026e-06
5.12806e-08
8.25759e-06
6.80598e-08
8.25545e-06
7.34841e-08
8.2562e-06
8.25028e-08
8.2589e-06
9.7436e-08
8.26202e-06
1.08923e-07
8.26593e-06
1.14759e-07
1.18156e-07
8.27124e-06
8.71632e-06
9.54086e-08
8.71218e-06
3.67288e-08
8.71537e-06
-9.4039e-08
8.71951e-06
6.04544e-08
8.69293e-06
-1.89118e-08
8.6859e-06
-3.07587e-08
8.68378e-06
5.34624e-08
8.67136e-06
1.97803e-08
8.66844e-06
1.33067e-08
8.66721e-06
5.28789e-08
8.65907e-06
4.59712e-08
8.65386e-06
3.5178e-08
8.65301e-06
5.21316e-08
8.65129e-06
6.97866e-08
8.64968e-06
7.50942e-08
8.65019e-06
8.19884e-08
8.65313e-06
9.45022e-08
8.65678e-06
1.0527e-07
8.66097e-06
1.10571e-07
1.12847e-07
8.66628e-06
9.13141e-06
8.1617e-08
9.13234e-06
3.58028e-08
9.13474e-06
-9.64451e-08
9.13341e-06
6.1783e-08
9.10711e-06
7.39043e-09
9.09754e-06
-2.11861e-08
9.09644e-06
5.45611e-08
9.08443e-06
3.17936e-08
9.07953e-06
1.82029e-08
9.07883e-06
5.35828e-08
9.07182e-06
5.29824e-08
9.06596e-06
4.10349e-08
9.0648e-06
5.32907e-08
9.06388e-06
7.07115e-08
9.06287e-06
7.60965e-08
9.06335e-06
8.15108e-08
9.06639e-06
9.14626e-08
9.07048e-06
1.01175e-07
9.07501e-06
1.06049e-07
1.0749e-07
9.08036e-06
9.5661e-06
6.89818e-08
9.56464e-06
3.72603e-08
9.55601e-06
-8.78163e-08
9.56093e-06
5.68587e-08
9.54049e-06
2.7832e-08
9.52945e-06
-1.01433e-08
9.52885e-06
5.5158e-08
9.51757e-06
4.30721e-08
9.51082e-06
2.49559e-08
9.51003e-06
5.43689e-08
9.50429e-06
5.87295e-08
9.49819e-06
4.71305e-08
9.4966e-06
5.48784e-08
9.49628e-06
7.10363e-08
9.49586e-06
7.65127e-08
9.49654e-06
8.08382e-08
9.49964e-06
8.8362e-08
9.50408e-06
9.67315e-08
9.50895e-06
1.01177e-07
1.0202e-07
9.51442e-06
1.00214e-05
5.77427e-08
1.00106e-05
4.79881e-08
1.00011e-05
-7.82242e-08
1.00106e-05
4.73134e-08
9.99466e-06
4.37677e-08
9.98244e-06
2.07741e-09
9.98183e-06
5.57748e-08
9.97165e-06
5.32503e-08
9.96332e-06
3.32843e-08
9.96191e-06
5.57828e-08
9.95734e-06
6.32903e-08
9.95143e-06
5.30462e-08
9.94943e-06
5.68822e-08
9.94946e-06
7.10018e-08
9.94958e-06
7.63943e-08
9.9506e-06
7.98206e-08
9.95377e-06
8.51835e-08
9.95848e-06
9.20216e-08
9.9637e-06
9.59651e-08
9.63751e-08
9.96934e-06
1.04983e-05
4.80467e-08
1.04828e-05
6.34777e-08
1.04764e-05
-7.1745e-08
1.04846e-05
3.90881e-08
1.04708e-05
5.76014e-08
1.04573e-05
1.55046e-08
1.04563e-05
5.68526e-08
1.04475e-05
6.20507e-08
1.0438e-05
4.27362e-08
1.04355e-05
5.82901e-08
1.04319e-05
6.69045e-08
1.04265e-05
5.84614e-08
1.04242e-05
5.91868e-08
1.04244e-05
7.07752e-08
1.0425e-05
7.58267e-08
1.04264e-05
7.83856e-08
1.04297e-05
8.18699e-08
1.04346e-05
8.70907e-08
1.04402e-05
9.04293e-08
9.05243e-08
1.0446e-05
1.09987e-05
3.93521e-08
1.10095e-05
5.2723e-08
1.09841e-05
-4.64063e-08
1.09817e-05
4.15653e-08
1.09696e-05
6.9626e-08
1.09552e-05
2.99635e-08
1.09531e-05
5.88732e-08
1.09458e-05
6.94124e-08
1.09358e-05
5.26752e-08
1.0932e-05
6.21187e-08
1.0929e-05
6.99461e-08
1.09243e-05
6.31819e-08
1.09219e-05
6.15906e-08
1.09222e-05
7.04499e-08
1.09231e-05
7.49427e-08
1.09249e-05
7.65315e-08
1.09284e-05
7.83797e-08
1.09335e-05
8.19729e-08
1.09394e-05
8.45959e-08
8.44574e-08
1.09454e-05
1.15222e-05
3.24928e-08
1.15125e-05
6.24325e-08
1.15006e-05
-3.45155e-08
1.15037e-05
3.85252e-08
1.14933e-05
7.99692e-08
1.14775e-05
4.57808e-08
1.14739e-05
6.24815e-08
1.14678e-05
7.55519e-08
1.14579e-05
6.25793e-08
1.14527e-05
6.72607e-08
1.14497e-05
7.29256e-08
1.14457e-05
6.72044e-08
1.14434e-05
6.38577e-08
1.14439e-05
6.99618e-08
1.1445e-05
7.38816e-08
1.14473e-05
7.42517e-08
1.1451e-05
7.46631e-08
1.14563e-05
7.66636e-08
1.14624e-05
7.84766e-08
7.81245e-08
1.14687e-05
1.20714e-05
2.69481e-08
1.20642e-05
6.95924e-08
1.20467e-05
-1.70536e-08
1.205e-05
3.52885e-08
1.2042e-05
8.7926e-08
1.20252e-05
6.25857e-08
1.20196e-05
6.81139e-08
1.20143e-05
8.08632e-08
1.20049e-05
7.19372e-08
1.19988e-05
7.34151e-08
1.19954e-05
7.62539e-08
1.1992e-05
7.06543e-08
1.199e-05
6.58268e-08
1.19907e-05
6.92728e-08
1.1992e-05
7.2603e-08
1.19946e-05
7.16683e-08
1.19985e-05
7.07173e-08
1.2004e-05
7.11805e-08
1.20104e-05
7.20984e-08
7.15054e-08
1.2017e-05
1.26466e-05
2.29259e-08
1.26396e-05
7.66413e-08
1.26224e-05
1.24693e-10
1.26228e-05
3.48736e-08
1.26165e-05
9.42203e-08
1.25996e-05
7.95263e-08
1.25916e-05
7.60386e-08
1.25866e-05
8.59203e-08
1.2578e-05
8.05051e-08
1.25712e-05
8.02502e-08
1.25672e-05
8.02194e-08
1.25641e-05
7.37626e-08
1.25625e-05
6.74598e-08
1.25633e-05
6.84424e-08
1.25651e-05
7.07793e-08
1.25678e-05
6.89578e-08
1.25721e-05
6.64927e-08
1.25777e-05
6.55582e-08
1.25843e-05
6.54631e-08
6.45712e-08
1.25913e-05
1.32495e-05
2.03361e-08
1.32501e-05
7.60672e-08
1.32293e-05
2.08881e-08
1.32234e-05
4.07818e-08
1.32179e-05
9.97046e-08
1.32016e-05
9.58758e-08
1.31914e-05
8.62758e-08
1.31859e-05
9.13425e-08
1.31782e-05
8.82383e-08
1.31711e-05
8.73508e-08
1.31664e-05
8.48692e-08
1.31634e-05
7.67926e-08
1.3162e-05
6.88395e-08
1.3163e-05
6.74444e-08
1.31655e-05
6.83173e-08
1.31684e-05
6.60751e-08
1.31729e-05
6.1926e-08
1.31786e-05
5.99494e-08
1.31855e-05
5.85625e-08
5.72991e-08
1.31927e-05
1.38814e-05
1.91384e-08
1.38838e-05
7.36406e-08
1.38627e-05
4.19926e-08
1.38531e-05
5.03235e-08
1.38479e-05
1.04971e-07
1.38325e-05
1.11291e-07
1.38202e-05
9.85417e-08
1.38138e-05
9.77291e-08
1.38067e-05
9.53173e-08
1.37997e-05
9.43706e-08
1.37945e-05
9.00944e-08
1.37912e-05
8.00409e-08
1.379e-05
7.01137e-08
1.37911e-05
6.62639e-08
1.37941e-05
6.53686e-08
1.37974e-05
6.27356e-08
1.38024e-05
5.69693e-08
1.38079e-05
5.44862e-08
1.38151e-05
5.13383e-08
4.96672e-08
1.38227e-05
1.45435e-05
1.92983e-08
1.45378e-05
7.93082e-08
1.45228e-05
5.70373e-08
1.45134e-05
5.97498e-08
1.45078e-05
1.10529e-07
1.44934e-05
1.25686e-07
1.44796e-05
1.1238e-07
1.44717e-05
1.05634e-07
1.44649e-05
1.02134e-07
1.44581e-05
1.01122e-07
1.44526e-05
9.56433e-08
1.44489e-05
8.37145e-08
1.44476e-05
7.14169e-08
1.44489e-05
6.49689e-08
1.44522e-05
6.20834e-08
1.44563e-05
5.86249e-08
1.44614e-05
5.1854e-08
1.44672e-05
4.87137e-08
1.44745e-05
4.40032e-08
4.16015e-08
1.44826e-05
1.52377e-05
2.04994e-08
1.52362e-05
8.07863e-08
1.52179e-05
7.53102e-08
1.52049e-05
7.27957e-08
1.5199e-05
1.16455e-07
1.51856e-05
1.39004e-07
1.51707e-05
1.27283e-07
1.5161e-05
1.15338e-07
1.5154e-05
1.09177e-07
1.51475e-05
1.07602e-07
1.51419e-05
1.01274e-07
1.51377e-05
8.78847e-08
1.51362e-05
7.29427e-08
1.51375e-05
6.3691e-08
1.5141e-05
5.85187e-08
1.51459e-05
5.37426e-08
1.5151e-05
4.68035e-08
1.51578e-05
4.18568e-08
1.51649e-05
3.69594e-08
3.29318e-08
1.51735e-05
1.59651e-05
2.26958e-08
1.5966e-05
7.99661e-08
1.59454e-05
9.58874e-08
1.593e-05
8.8183e-08
1.59229e-05
1.23526e-07
1.59106e-05
1.51296e-07
1.58951e-05
1.42827e-07
1.58835e-05
1.26881e-07
1.58757e-05
1.17044e-07
1.58693e-05
1.14008e-07
1.58637e-05
1.06862e-07
1.58591e-05
9.24472e-08
1.58571e-05
7.49315e-08
1.58583e-05
6.25353e-08
1.5862e-05
5.47533e-08
1.58674e-05
4.8415e-08
1.5873e-05
4.11594e-08
1.58804e-05
3.4509e-08
1.58882e-05
2.91655e-08
2.44172e-08
1.58967e-05
1.67272e-05
2.60562e-08
1.6715e-05
9.22453e-08
1.6706e-05
1.04819e-07
1.66906e-05
1.03654e-07
1.66814e-05
1.32711e-07
1.66698e-05
1.62898e-07
1.66539e-05
1.58664e-07
1.66407e-05
1.40157e-07
1.66315e-05
1.26186e-07
1.66248e-05
1.20692e-07
1.66192e-05
1.12484e-07
1.66145e-05
9.71699e-08
1.66119e-05
7.75473e-08
1.66127e-05
6.16713e-08
1.66165e-05
5.09527e-08
1.66222e-05
4.27915e-08
1.66287e-05
3.46128e-08
1.66364e-05
2.67745e-08
1.66453e-05
2.03424e-08
1.59021e-08
1.66538e-05
1.75268e-05
2.96025e-08
1.75359e-05
8.31927e-08
1.75101e-05
1.30593e-07
1.74872e-05
1.26499e-07
1.7476e-05
1.43947e-07
1.74647e-05
1.74245e-07
1.74489e-05
1.74472e-07
1.7434e-05
1.55006e-07
1.74232e-05
1.36948e-07
1.74158e-05
1.2812e-07
1.74099e-05
1.18413e-07
1.7405e-05
1.02028e-07
1.74017e-05
8.0837e-08
1.74021e-05
6.1363e-08
1.74057e-05
4.72956e-08
1.74117e-05
3.68153e-08
1.7419e-05
2.72614e-08
1.74274e-05
1.83816e-08
1.74368e-05
1.10059e-08
6.04741e-09
1.74466e-05
1.83639e-05
3.40955e-08
1.83502e-05
9.684e-08
1.83431e-05
1.37704e-07
1.83235e-05
1.46118e-07
1.83091e-05
1.58341e-07
1.82972e-05
1.86113e-07
1.82815e-05
1.90193e-07
1.82652e-05
1.7131e-07
1.82526e-05
1.49581e-07
1.82439e-05
1.36808e-07
1.82373e-05
1.24981e-07
1.82322e-05
1.07151e-07
1.82282e-05
8.47888e-08
1.82278e-05
6.1808e-08
1.82311e-05
4.39623e-08
1.82374e-05
3.05537e-08
1.82455e-05
1.91377e-08
1.82548e-05
9.12432e-09
1.82651e-05
6.50936e-10
-4.93403e-09
1.82761e-05
1.92417e-05
3.87768e-08
1.9238e-05
1.00553e-07
1.9219e-05
1.56744e-07
1.91994e-05
1.65681e-07
1.91821e-05
1.7563e-07
1.91692e-05
1.98984e-07
1.91534e-05
2.0599e-07
1.91358e-05
1.88917e-07
1.91211e-05
1.64263e-07
1.91108e-05
1.47192e-07
1.91031e-05
1.32608e-07
1.90973e-05