/*--------------------------------*- C++ -*----------------------------------*\
| =========                 |                                                 |
| \\      /  F ield         | OpenFOAM: The Open Source CFD Toolbox           |
|  \\    /   O peration     | Version:  v2012                                 |
|   \\  /    A nd           | Website:  www.openfoam.com                      |
|    \\/     M anipulation  |                                                 |
\*---------------------------------------------------------------------------*/
FoamFile
{
    version     2.0;
    format      ascii;
    class       surfaceScalarField;
    location    "2.9";
    object      phi;
}
// * * * * * * * * * * * * * * * * * * * * * * * * * * * * * * * * * * * * * //

dimensions      [0 3 -1 0 0 0 0];
oriented        oriented;


internalField   nonuniform List<scalar> 
34900
(
1.17134e-06
2.26341e-07
1.16166e-06
-3.62327e-07
1.16955e-06
4.37507e-07
1.15049e-06
-5.25323e-07
1.16487e-06
2.78222e-07
1.15153e-06
-1.42275e-07
1.16281e-06
3.06233e-08
1.15709e-06
1.19546e-07
1.16559e-06
5.69787e-08
1.15698e-06
8.98735e-08
1.16358e-06
8.49646e-08
1.15288e-06
5.67522e-08
1.15895e-06
6.80097e-08
1.1469e-06
3.52906e-08
1.15304e-06
6.27725e-08
1.13985e-06
2.37217e-08
1.14581e-06
6.37028e-08
1.13164e-06
1.7802e-08
1.13304e-06
8.143e-08
2.21477e-08
1.09547e-06
1.22465e-06
2.25951e-07
1.21583e-06
-3.53503e-07
1.22075e-06
4.32587e-07
1.20267e-06
-5.07241e-07
1.2146e-06
2.66289e-07
1.20502e-06
-1.32691e-07
1.21366e-06
2.19784e-08
1.21342e-06
1.19788e-07
1.21857e-06
5.1829e-08
1.21531e-06
9.31304e-08
1.21666e-06
8.36125e-08
1.21309e-06
6.03254e-08
1.21111e-06
6.9987e-08
1.2095e-06
3.6905e-08
1.20335e-06
6.89258e-08
1.20562e-06
2.145e-08
1.19275e-06
7.6565e-08
1.2009e-06
9.65921e-09
1.17517e-06
1.07156e-07
1.84684e-08
1.17885e-06
1.27996e-06
2.28778e-07
1.27244e-06
-3.45989e-07
1.27466e-06
4.3037e-07
1.25874e-06
-4.91321e-07
1.26609e-06
2.58942e-07
1.26253e-06
-1.29136e-07
1.26576e-06
1.87506e-08
1.2729e-06
1.12647e-07
1.27256e-06
5.21632e-08
1.27682e-06
8.88751e-08
1.27169e-06
8.87451e-08
1.27575e-06
5.62602e-08
1.26707e-06
7.86722e-08
1.27204e-06
3.19289e-08
1.26093e-06
8.00389e-08
1.26643e-06
1.59547e-08
1.25403e-06
8.89639e-08
1.25746e-06
6.22621e-09
1.24443e-06
1.20184e-07
3.23131e-08
1.23059e-06
1.33825e-06
2.34635e-07
1.3328e-06
-3.40539e-07
1.33299e-06
4.30181e-07
1.32071e-06
-4.79047e-07
1.32261e-06
2.5704e-07
1.32554e-06
-1.32065e-07
1.32265e-06
2.16398e-08
1.33468e-06
1.00618e-07
1.33109e-06
5.57596e-08
1.33881e-06
8.11503e-08
1.33208e-06
9.54804e-08
1.33775e-06
5.05836e-08
1.32962e-06
8.68014e-08
1.33342e-06
2.81324e-08
1.32578e-06
8.76816e-08
1.32735e-06
1.43844e-08
1.32105e-06
9.52608e-08
1.31844e-06
8.8398e-09
1.31271e-06
1.25916e-07
5.00854e-08
1.29493e-06
1.40062e-06
2.42373e-07
1.39719e-06
-3.37114e-07
1.39681e-06
4.30565e-07
1.38828e-06
-4.7052e-07
1.38618e-06
2.59139e-07
1.39308e-06
-1.38967e-07
1.38662e-06
2.81032e-08
1.39915e-06
8.80902e-08
1.39591e-06
5.89926e-08
1.40295e-06
7.4112e-08
1.39852e-06
9.9913e-08
1.40248e-06
4.66229e-08
1.39757e-06
9.17115e-08
1.39889e-06
2.6816e-08
1.3946e-06
9.19679e-08
1.39383e-06
1.51571e-08
1.39018e-06
9.89059e-08
1.38551e-06
1.35153e-08
1.38176e-06
1.29659e-07
6.78201e-08
1.36403e-06
1.46784e-06
2.50207e-07
1.46567e-06
-3.34942e-07
1.46624e-06
4.29992e-07
1.4604e-06
-4.64673e-07
1.45675e-06
2.62784e-07
1.46417e-06
-1.46386e-07
1.45728e-06
3.49891e-08
1.46743e-06
7.79484e-08
1.46624e-06
6.01814e-08
1.47134e-06
6.90075e-08
1.46963e-06
1.01628e-07
1.47203e-06
4.42153e-08
1.46936e-06
9.43875e-08
1.46955e-06
2.6625e-08
1.46676e-06
9.4756e-08
1.46522e-06
1.67017e-08
1.46265e-06
1.01471e-07
1.45678e-06
1.93906e-08
1.4545e-06
1.31931e-07
8.55809e-08
1.43674e-06
1.54e-06
2.56421e-07
1.53812e-06
-3.33063e-07
1.54053e-06
4.2759e-07
1.53601e-06
-4.60155e-07
1.53273e-06
2.66063e-07
1.53832e-06
-1.5198e-07
1.53266e-06
4.0651e-08
1.53987e-06
7.07362e-08
1.54029e-06
5.97603e-08
1.54407e-06
6.52338e-08
1.54396e-06
1.0174e-07
1.54579e-06
4.23824e-08
1.54421e-06
9.5968e-08
1.54413e-06
2.67023e-08
1.54217e-06
9.67221e-08
1.54013e-06
1.87326e-08
1.53858e-06
1.03028e-07
1.53146e-06
2.6509e-08
1.53063e-06
1.32762e-07
1.0305e-07
1.51316e-06
1.61648e-06
2.60071e-07
1.61428e-06
-3.30865e-07
1.61849e-06
4.23381e-07
1.61433e-06
-4.55998e-07
1.61225e-06
2.68141e-07
1.61534e-06
-1.55063e-07
1.61105e-06
4.49413e-08
1.61603e-06
6.57578e-08
1.61707e-06
5.87116e-08
1.62026e-06
6.20532e-08
1.62087e-06
1.01129e-07
1.62263e-06
4.06161e-08
1.62172e-06
9.68752e-08
1.62158e-06
2.68431e-08
1.62042e-06
9.78817e-08
1.61785e-06
2.13103e-08
1.61741e-06
1.03461e-07
1.60913e-06
3.47885e-08
1.6095e-06
1.32401e-07
1.19639e-07
1.59291e-06
1.69645e-06
2.61193e-07
1.69381e-06
-3.28224e-07
1.69926e-06
4.17931e-07
1.69499e-06
-4.51727e-07
1.69427e-06
2.68861e-07
1.69521e-06
-1.56e-07
1.69193e-06
4.82169e-08
1.69549e-06
6.21955e-08
1.69659e-06
5.7613e-08
1.69948e-06
5.91663e-08
1.70044e-06
1.00171e-07
1.70221e-06
3.88413e-08
1.70192e-06
9.71708e-08
1.70166e-06
2.70944e-08
1.70142e-06
9.81228e-08
1.69822e-06
2.45113e-08
1.69895e-06
1.02729e-07
1.68972e-06
4.4018e-08
1.69092e-06
1.31208e-07
1.3478e-07
1.67578e-06
1.77947e-06
2.60445e-07
1.77655e-06
-3.25304e-07
1.78262e-06
4.11865e-07
1.77805e-06
-4.47158e-07
1.77867e-06
2.68239e-07
1.77811e-06
-1.5544e-07
1.77565e-06
5.06795e-08
1.77834e-06
5.95058e-08
1.77937e-06
5.65838e-08
1.78197e-06
5.65658e-08
1.78317e-06
9.89727e-08
1.78483e-06
3.71736e-08
1.78517e-06
9.68308e-08
1.78467e-06
2.75956e-08
1.78543e-06
9.73618e-08
1.78155e-06
2.83962e-08
1.78336e-06
1.00915e-07
1.77348e-06
5.38984e-08
1.77505e-06
1.29641e-07
1.47998e-07
1.76183e-06
1.86561e-06
2.58586e-07
1.86261e-06
-3.22303e-07
1.86889e-06
4.05585e-07
1.86394e-06
-4.42208e-07
1.86589e-06
2.66281e-07
1.86434e-06
-1.53891e-07
1.86274e-06
5.22889e-08
1.86485e-06
5.73922e-08
1.86592e-06
5.551e-08
1.86816e-06
5.43289e-08
1.86961e-06
9.75259e-08
1.87099e-06
3.57853e-08
1.872e-06
9.5827e-08
1.87108e-06
2.85166e-08
1.87285e-06
9.55884e-08
1.86826e-06
3.2985e-08
1.87093e-06
9.82493e-08
1.86077e-06
6.4058e-08
1.86219e-06
1.28222e-07
1.58943e-07
1.85124e-06
1.95527e-06
2.56161e-07
1.95228e-06
-3.19316e-07
1.95863e-06
3.99234e-07
1.95322e-06
-4.36802e-07
1.9565e-06
2.63008e-07
1.95422e-06
-1.5162e-07
1.95359e-06
5.29199e-08
1.95527e-06
5.57158e-08
1.95657e-06
5.42072e-08
1.95837e-06
5.25284e-08
1.96013e-06
9.5766e-08
1.96108e-06
3.48395e-08
1.96277e-06
9.41364e-08
1.96128e-06
3.00034e-08
1.96399e-06
9.28774e-08
1.95876e-06
3.82173e-08
1.96192e-06
9.50883e-08
1.9519e-06
7.40843e-08
1.95269e-06
1.27431e-07
1.67465e-07
1.94417e-06
2.04891e-06
2.53441e-07
2.04592e-06
-3.1633e-07
2.05238e-06
3.92781e-07
2.04644e-06
-4.30869e-07
2.05096e-06
2.58492e-07
2.04805e-06
-1.48709e-07
2.04848e-06
5.24896e-08
2.04975e-06
5.4446e-08
2.05146e-06
5.24931e-08
2.05277e-06
5.12203e-08
2.05494e-06
9.35931e-08
2.05533e-06
3.44548e-08
2.05772e-06
9.17432e-08
2.05559e-06
3.21327e-08
2.05908e-06
8.93852e-08
2.05337e-06
4.39292e-08
2.05659e-06
9.18671e-08
2.0471e-06
8.35738e-08
2.04692e-06
1.27617e-07
1.73636e-07
2.04075e-06
2.14692e-06
2.50518e-07
2.14386e-06
-3.13268e-07
2.15053e-06
3.8611e-07
2.144e-06
-4.24336e-07
2.14966e-06
2.52839e-07
2.14609e-06
-1.45147e-07
2.1476e-06
5.09832e-08
2.14842e-06
5.36304e-08
2.1507e-06
5.02104e-08
2.15146e-06
5.04532e-08
2.15416e-06
9.0898e-08
2.15392e-06
3.46917e-08
2.15701e-06
8.86531e-08
2.15427e-06
3.48802e-08
2.15831e-06
8.53428e-08
2.15238e-06
4.98614e-08
2.15521e-06
8.90319e-08
2.1466e-06
9.21832e-08
2.14527e-06
1.28948e-07
1.7773e-07
2.14118e-06
2.24961e-06
2.474e-07
2.24637e-06
-3.10035e-07
2.2534e-06
3.79081e-07
2.2462e-06
-4.1714e-07
2.25291e-06
2.46138e-07
2.24864e-06
-1.4088e-07
2.2512e-06
4.8417e-08
2.25147e-06
5.33639e-08
2.25445e-06
4.72324e-08
2.25463e-06
5.02709e-08
2.25794e-06
8.75903e-08
2.25708e-06
3.55491e-08
2.26082e-06
8.49163e-08
2.25759e-06
3.81126e-08
2.26189e-06
8.10417e-08
2.25605e-06
5.57013e-08
2.25811e-06
8.69728e-08
2.25062e-06
9.96703e-08
2.24816e-06
1.31407e-07
1.80158e-07
2.24573e-06
2.35721e-06
2.44069e-07
2.35371e-06
-3.06534e-07
2.36122e-06
3.71568e-07
2.3533e-06
-4.09217e-07
2.361e-06
2.38435e-07
2.35596e-06
-1.35841e-07
2.35958e-06
4.47979e-08
2.35919e-06
5.37577e-08
2.36295e-06
4.34647e-08
2.36252e-06
5.07036e-08
2.36648e-06
8.36256e-08
2.36508e-06
3.69581e-08
2.36934e-06
8.06542e-08
2.36586e-06
4.15937e-08
2.37009e-06
7.68124e-08
2.36464e-06
6.11451e-08
2.36566e-06
8.59571e-08
2.35939e-06
1.05942e-07
2.35598e-06
1.34811e-07
1.81396e-07
2.35474e-06
2.46996e-06
2.40502e-07
2.46611e-06
-3.02682e-07
2.47422e-06
3.63459e-07
2.46551e-06
-4.00503e-07
2.47422e-06
2.29719e-07
2.46833e-06
-1.29952e-07
2.47302e-06
4.01062e-08
2.47187e-06
5.4914e-08
2.47648e-06
3.88491e-08
2.47544e-06
5.17493e-08
2.48003e-06
7.90286e-08
2.47822e-06
3.87718e-08
2.48281e-06
7.60692e-08
2.47938e-06
4.50174e-08
2.48321e-06
7.29814e-08
2.4784e-06
6.59613e-08
2.47827e-06
8.60819e-08
2.47313e-06
1.11081e-07
2.46911e-06
1.38838e-07
1.81924e-07
2.46858e-06
2.58812e-06
2.36678e-07
2.58383e-06
-2.98397e-07
2.59264e-06
3.5465e-07
2.58307e-06
-3.90928e-07
2.59285e-06
2.19936e-07
2.58603e-06
-1.23132e-07
2.59183e-06
3.43027e-08
2.58984e-06
5.69066e-08
2.59532e-06
3.33734e-08
2.59372e-06
5.33509e-08
2.59883e-06
7.39108e-08
2.59685e-06
4.07571e-08
2.60148e-06
7.14361e-08
2.59844e-06
4.80543e-08
2.6016e-06
6.98248e-08
2.59753e-06
7.00287e-08
2.59634e-06
8.72725e-08
2.59211e-06
1.15312e-07
2.58784e-06
1.43107e-07
1.82168e-07
2.5876e-06
2.71193e-06
2.32576e-07
2.70713e-06
-2.93601e-07
2.71675e-06
3.45035e-07
2.70624e-06
-3.80415e-07
2.71716e-06
2.09007e-07
2.70934e-06
-1.15305e-07
2.71629e-06
2.7348e-08
2.71343e-06
5.97651e-08
2.71972e-06
2.70865e-08
2.7177e-06
5.53747e-08
2.72313e-06
6.8474e-08
2.72128e-06
4.26099e-08
2.72566e-06
6.70582e-08
2.72329e-06
5.0421e-08
2.72561e-06
6.75056e-08
2.72226e-06
7.33748e-08
2.72021e-06
8.9323e-08
2.71662e-06
1.18909e-07
2.71245e-06
1.47273e-07
1.82444e-07
2.71218e-06
2.84167e-06
2.28175e-07
2.83627e-06
-2.88205e-07
2.84681e-06
3.34502e-07
2.83527e-06
-3.68882e-07
2.84744e-06
1.96843e-07
2.83854e-06
-1.06408e-07
2.84666e-06
1.92244e-08
2.84297e-06
6.34578e-08
2.84994e-06
2.01155e-08
2.84772e-06
5.75927e-08
2.85319e-06
6.30128e-08
2.85182e-06
4.39734e-08
2.85566e-06
6.32213e-08
2.85414e-06
5.19395e-08
2.85562e-06
6.60242e-08
2.85282e-06
7.61804e-08
2.85016e-06
9.19745e-08
2.84698e-06
1.22096e-07
2.84315e-06
1.51098e-07
1.82921e-07
2.84268e-06
2.97762e-06
2.23453e-07
2.97153e-06
-2.82113e-07
2.9831e-06
3.22929e-07
2.97046e-06
-3.56245e-07
2.98394e-06
1.83362e-07
2.97395e-06
-9.64125e-08
2.98321e-06
9.96024e-09
2.9788e-06
6.78738e-08
2.98623e-06
1.26833e-08
2.98415e-06
5.96765e-08
2.98927e-06
5.78925e-08
2.98875e-06
4.44867e-08
2.99184e-06
6.01292e-08
2.99119e-06
5.25901e-08
2.99203e-06
6.51919e-08
2.98947e-06
7.87365e-08
2.98644e-06
9.50056e-08
2.98351e-06
1.25023e-07
2.98016e-06
1.5445e-07
1.83641e-07
2.97944e-06
3.12007e-06
2.18386e-07
3.11318e-06
-2.75224e-07
3.12593e-06
3.10188e-07
3.11211e-06
-3.42431e-07
3.12697e-06
1.68504e-07
3.11589e-06
-8.53358e-08
3.1262e-06
-3.48779e-10
3.12127e-06
7.28062e-08
3.12883e-06
5.11777e-09
3.12731e-06
6.12036e-08
3.13168e-06
5.35224e-08
3.13233e-06
4.38321e-08
3.1346e-06
5.78651e-08
3.13469e-06
5.24983e-08
3.1352e-06
6.46837e-08
3.13261e-06
8.13187e-08
3.12929e-06
9.8324e-08
3.12644e-06
1.27876e-07
3.12374e-06
1.57152e-07
1.84618e-07
3.12276e-06
3.26934e-06
2.12952e-07
3.26155e-06
-2.67432e-07
3.27558e-06
2.96155e-07
3.26054e-06
-3.27387e-07
3.27679e-06
1.52255e-07
3.26472e-06
-7.32671e-08
3.27589e-06
-1.1516e-08
3.27076e-06
7.79374e-08
3.27802e-06
-2.14277e-09
3.27755e-06
6.1669e-08
3.28075e-06
5.03295e-08
3.28282e-06
4.176e-08
3.28427e-06
5.64106e-08
3.28494e-06
5.18307e-08
3.28545e-06
6.41736e-08
3.28285e-06
8.39211e-08
3.27907e-06
1.02097e-07
3.27577e-06
1.31177e-07
3.27421e-06
1.58715e-07
1.86064e-07
3.27276e-06
3.42575e-06
2.07135e-07
3.41695e-06
-2.58638e-07
3.43239e-06
2.80724e-07
3.4161e-06
-3.11106e-07
3.43369e-06
1.34665e-07
3.42082e-06
-6.03927e-08
3.43254e-06
-2.3238e-08
3.42766e-06
8.28224e-08
3.43407e-06
-8.5584e-09
3.4352e-06
6.05389e-08
3.43686e-06
4.86682e-08
3.44044e-06
3.81799e-08
3.44123e-06
5.56219e-08
3.44231e-06
5.07482e-08
3.4431e-06
6.33835e-08
3.44131e-06
8.57129e-08
3.43675e-06
1.06659e-07
3.43147e-06
1.36461e-07
3.43044e-06
1.59746e-07
1.87144e-07
3.42936e-06
3.58963e-06
2.00919e-07
3.57974e-06
-2.48752e-07
3.59665e-06
2.63818e-07
3.57917e-06
-2.93633e-07
3.59798e-06
1.15864e-07
3.58458e-06
-4.69949e-08
3.59647e-06
-3.5126e-08
3.5923e-06
8.69896e-08
3.59742e-06
-1.36821e-08
3.60041e-06
5.75553e-08
3.60063e-06
4.84436e-08
3.60527e-06
3.35398e-08
3.60605e-06
5.48458e-08
3.60703e-06
4.97614e-08
3.60874e-06
6.16821e-08
3.60963e-06
8.48177e-08
3.61006e-06
1.06227e-07
3.60666e-06
1.39866e-07
3.59061e-06
1.7579e-07
1.83639e-07
3.59412e-06
3.76132e-06
1.94301e-07
3.75028e-06
-2.37709e-07
3.76869e-06
2.4541e-07
3.75015e-06
-2.75097e-07
3.76994e-06
9.60775e-08
3.75641e-06
-3.34692e-08
3.76799e-06
-4.67056e-08
3.76502e-06
8.9957e-08
3.76853e-06
-1.71868e-08
3.7733e-06
5.27851e-08
3.77268e-06
4.90672e-08
3.7774e-06
2.8817e-08
3.77931e-06
5.2932e-08
3.77951e-06
4.9561e-08
3.78322e-06
5.79739e-08
3.78672e-06
8.13234e-08
3.79068e-06
1.02261e-07
3.80027e-06
1.30281e-07
3.8142e-06
1.61862e-07
2.07892e-07
3.78994e-06
3.9412e-06
1.87289e-07
3.92899e-06
-2.25493e-07
3.94882e-06
2.25578e-07
3.92948e-06
-2.55759e-07
3.94987e-06
7.56912e-08
3.9368e-06
-2.04028e-08
3.94741e-06
-5.73175e-08
3.94628e-06
9.10933e-08
3.94772e-06
-1.86305e-08
3.95437e-06
4.61324e-08
3.95307e-06
5.03668e-08
3.95765e-06
2.4243e-08
3.96082e-06
4.97566e-08
3.96093e-06
4.94483e-08
3.96221e-06
5.66968e-08
3.95552e-06
8.80195e-08
3.9481e-06
1.09679e-07
3.94236e-06
1.36021e-07
3.93412e-06
1.701e-07
1.99101e-07
3.94291e-06
4.12964e-06
1.79904e-07
4.11629e-06
-2.12147e-07
4.13736e-06
2.04506e-07
4.11761e-06
-2.36008e-07
4.1381e-06
5.51974e-08
4.12617e-06
-8.46865e-09
4.13517e-06
-6.6315e-08
4.13634e-06
8.99155e-08
4.13552e-06
-1.78115e-08
4.1439e-06
3.77569e-08
4.14214e-06
5.21284e-08
4.1464e-06
1.99847e-08
4.14863e-06
4.75243e-08
4.14344e-06
5.46367e-08
4.1381e-06
6.2037e-08
4.13591e-06
9.02093e-08
4.13023e-06
1.15361e-07
4.12577e-06
1.40483e-07
4.12409e-06
1.71777e-07
1.94919e-07
4.12827e-06
4.32702e-06
1.72185e-07
4.31266e-06
-1.97781e-07
4.33465e-06
1.82515e-07
4.31498e-06
-2.16344e-07
4.33506e-06
3.51219e-08
4.32485e-06
1.74127e-09
4.33185e-06
-7.33143e-08
4.33537e-06
8.6393e-08
4.33267e-06
-1.51116e-08
4.34188e-06
2.85457e-08
4.34e-06
5.40113e-08
4.34048e-06
1.94993e-08
4.33953e-06
4.84788e-08
4.33341e-06
6.07549e-08
4.32985e-06
6.56003e-08
4.32761e-06
9.24442e-08
4.32327e-06
1.19708e-07
4.3201e-06
1.43647e-07
4.32105e-06
1.70829e-07
1.91907e-07
4.32406e-06
4.53377e-06
1.64193e-07
4.51859e-06
-1.82605e-07
4.54101e-06
1.60096e-07
4.52209e-06
-1.9742e-07
4.54116e-06
1.60474e-08
4.53322e-06
9.67884e-09
4.53805e-06
-7.81439e-08
4.54359e-06
8.0855e-08
4.53962e-06
-1.11413e-08
4.54797e-06
2.01907e-08
4.54464e-06
5.73478e-08
4.54096e-06
2.31745e-08
4.54106e-06
4.83808e-08
4.53527e-06
6.65443e-08
4.53137e-06
6.94992e-08
4.5295e-06
9.43175e-08
4.52627e-06
1.22939e-07
4.52395e-06
1.45968e-07
4.5262e-06
1.68575e-07
1.89215e-07
4.52889e-06
4.7503e-06
1.56006e-07
4.73461e-06
-1.66917e-07
4.75682e-06
1.3789e-07
4.73935e-06
-1.79946e-07
4.75693e-06
-1.53738e-09
4.75157e-06
1.50387e-08
4.75441e-06
-8.09833e-08
4.76125e-06
7.40148e-08
4.75621e-06
-6.10488e-09
4.76142e-06
1.49874e-08
4.75726e-06
6.15069e-08
4.75214e-06
2.82941e-08
4.75261e-06
4.79135e-08
4.74767e-06
7.14784e-08
4.74311e-06
7.40565e-08
4.74152e-06
9.59131e-08
4.73929e-06
1.25171e-07
4.73783e-06
1.47422e-07
4.74009e-06
1.66319e-07
1.8622e-07
4.74308e-06
4.97708e-06
1.4772e-07
4.96127e-06
-1.511e-07
4.98251e-06
1.16642e-07
4.96717e-06
-1.64605e-07
4.98297e-06
-1.73357e-08
4.98017e-06
1.78402e-08
4.98148e-06
-8.22881e-08
4.98837e-06
6.71223e-08
4.9813e-06
9.64676e-10
4.9836e-06
1.26829e-08
4.9801e-06
6.50088e-08
4.97403e-06
3.43614e-08
4.97455e-06
4.73953e-08
4.97065e-06
7.53782e-08
4.96559e-06
7.91215e-08
4.964e-06
9.74989e-08
4.9627e-06
1.26472e-07
4.96221e-06
1.4791e-07
4.96376e-06
1.64773e-07
1.82712e-07
4.96727e-06
5.21459e-06
1.39443e-07
5.19909e-06
-1.35598e-07
5.21861e-06
9.71245e-08
5.2059e-06
-1.51901e-07
5.21994e-06
-3.1374e-08
5.21935e-06
1.8429e-08
5.21942e-06
-8.23526e-08
5.22483e-06
6.17099e-08
5.21519e-06
1.06068e-08
5.21634e-06
1.15328e-08
5.21386e-06
6.74893e-08
5.20714e-06
4.10769e-08
5.20729e-06
4.72436e-08
5.20453e-06
7.81425e-08
5.19925e-06
8.44035e-08
5.19742e-06
9.9325e-08
5.19708e-06
1.26818e-07
5.19727e-06
1.47711e-07
5.19851e-06
1.63542e-07
1.79012e-07
5.20221e-06
5.46334e-06
1.31292e-07
5.44864e-06
-1.20899e-07
5.46576e-06
8.00011e-08
5.45578e-06
-1.41919e-07
5.46844e-06
-4.4029e-08
5.46932e-06
1.7549e-08
5.46776e-06
-8.07928e-08
5.47069e-06
5.87757e-08
5.45991e-06
2.1388e-08
5.46029e-06
1.11572e-08
5.45906e-06
6.87132e-08
5.45194e-06
4.81973e-08
5.45135e-06
4.78373e-08
5.44971e-06
7.9784e-08
5.44457e-06
8.95422e-08
5.44236e-06
1.0153e-07
5.44288e-06
1.26299e-07
5.44353e-06
1.47065e-07
5.44487e-06
1.62196e-07
1.75281e-07
5.4486e-06
5.72388e-06
1.23373e-07
5.71047e-06
-1.07487e-07
5.72479e-06
6.56764e-08
5.71702e-06
-1.34145e-07
5.72869e-06
-5.57055e-08
5.72944e-06
1.68036e-08
5.7247e-06
-7.60588e-08
5.72747e-06
5.6009e-08
5.71664e-06
3.22175e-08
5.71615e-06
1.16485e-08
5.71614e-06
6.87182e-08
5.70895e-06
5.53952e-08
5.70733e-06
4.94529e-08
5.70663e-06
8.04824e-08
5.70203e-06
9.41458e-08
5.69946e-06
1.04096e-07
5.70055e-06
1.25208e-07
5.70163e-06
1.45988e-07
5.7033e-06
1.60529e-07
1.71523e-07
5.70706e-06
5.99679e-06
1.15777e-07
5.98512e-06
-9.58226e-08
5.99652e-06
5.42841e-08
5.98984e-06
-1.27466e-07
6.00021e-06
-6.60781e-08
5.99944e-06
1.75754e-08
5.99267e-06
-6.92933e-08
5.9963e-06
5.23776e-08
5.98622e-06
4.23069e-08
5.98448e-06
1.33853e-08
5.98558e-06
6.76196e-08
5.97866e-06
6.23099e-08
5.97591e-06
5.22053e-08
5.97582e-06
8.0573e-08
5.97209e-06
9.78794e-08
5.96936e-06
1.06825e-07
5.97063e-06
1.23934e-07
5.9722e-06
1.44417e-07
5.9743e-06
1.58435e-07
1.67697e-07
5.97812e-06
6.2827e-06
1.08567e-07
6.27312e-06
-8.62445e-08
6.28181e-06
4.55924e-08
6.27465e-06
-1.20303e-07
6.28301e-06
-7.44422e-08
6.2819e-06
1.86896e-08
6.27396e-06
-6.13504e-08
6.27814e-06
4.8192e-08
6.26912e-06
5.1328e-08
6.26593e-06
1.65762e-08
6.26786e-06
6.56938e-08
6.2616e-06
6.85633e-08
6.25777e-06
5.60364e-08
6.25789e-06
8.04499e-08
6.2552e-06
1.00571e-07
6.25265e-06
1.09379e-07
6.25376e-06
1.22822e-07
6.25584e-06
1.42335e-07
6.25842e-06
1.55854e-07
1.63752e-07
6.26237e-06
6.58225e-06
1.01783e-07
6.57493e-06
-7.89256e-08
6.58139e-06
3.91373e-08
6.57252e-06
-1.11439e-07
6.57913e-06
-8.10521e-08
6.5784e-06
1.94263e-08
6.56933e-06
-5.22865e-08
6.5736e-06
4.39276e-08
6.56588e-06
5.9045e-08
6.5612e-06
2.12595e-08
6.56354e-06
6.33514e-08
6.55829e-06
7.38123e-08
6.5536e-06
6.07301e-08
6.55357e-06
8.04744e-08
6.55191e-06
1.0224e-07
6.54986e-06
1.11422e-07
6.55066e-06
1.22028e-07
6.55317e-06
1.39822e-07
6.55626e-06
1.52765e-07
1.59627e-07
6.56038e-06
6.89614e-06
9.54328e-08
6.89098e-06
-7.37626e-08
6.89595e-06
3.41647e-08
6.88502e-06
-1.00513e-07
6.88983e-06
-8.58537e-08
6.88943e-06
1.9825e-08
6.87935e-06
-4.22122e-08
6.88331e-06
3.99718e-08
6.87705e-06
6.53039e-08
6.87102e-06
2.72925e-08
6.87329e-06
6.10782e-08
6.86927e-06
7.78287e-08
6.86406e-06
6.59445e-08
6.86362e-06
8.09137e-08
6.86283e-06
1.03028e-07
6.86151e-06
1.12743e-07
6.86205e-06
1.21487e-07
6.86486e-06
1.37016e-07
6.86843e-06
1.4919e-07
1.55267e-07
6.87279e-06
7.22508e-06
8.9492e-08
7.22174e-06
-7.04211e-08
7.22619e-06
2.9708e-08
7.21326e-06
-8.75812e-08
7.21583e-06
-8.84194e-08
7.21563e-06
2.00256e-08
7.20461e-06
-3.11934e-08
7.20792e-06
3.66618e-08
7.20321e-06
7.00119e-08
7.19616e-06
3.4346e-08
7.19784e-06
5.93949e-08
7.19512e-06
8.05507e-08
7.1898e-06
7.12608e-08
7.18881e-06
8.19074e-08
7.18872e-06
1.03118e-07
7.18815e-06
1.13309e-07
7.18864e-06
1.20994e-07
7.19162e-06
1.34038e-07
7.19563e-06
1.45185e-07
1.50633e-07
7.20026e-06
7.5698e-06
8.39176e-08
7.56785e-06
-6.84737e-08
7.57265e-06
2.49089e-08
7.55803e-06
-7.29554e-08
7.55789e-06
-8.82787e-08
7.55771e-06
2.02057e-08
7.54579e-06
-1.9283e-08
7.54813e-06
3.43315e-08
7.54501e-06
7.31298e-08
7.53733e-06
4.20191e-08
7.53803e-06
5.86979e-08
7.53645e-06
8.2132e-08
7.53145e-06
7.62653e-08
7.52992e-06
8.34342e-08
7.53034e-06
1.02698e-07
7.53043e-06
1.13214e-07
7.53111e-06
1.20314e-07
7.5342e-06
1.30954e-07
7.53856e-06
1.40825e-07
1.45704e-07
7.54349e-06
7.93107e-06
7.86591e-08
7.92995e-06
-6.7351e-08
7.93582e-06
1.90327e-08
7.92005e-06
-5.7184e-08
7.9167e-06
-8.49295e-08
7.91637e-06
2.05371e-08
7.90371e-06
-6.62337e-09
7.90472e-06
3.33216e-08
7.90309e-06
7.476e-08
7.89529e-06
4.98222e-08
7.89475e-06
5.92363e-08
7.894e-06
8.28803e-08
7.88963e-06
8.06383e-08
7.88774e-06
8.53251e-08
7.88849e-06
1.01942e-07
7.88913e-06
1.12578e-07
7.89016e-06
1.19283e-07
7.89335e-06
1.27767e-07
7.89799e-06
1.36184e-07
1.40479e-07
7.90321e-06
8.30967e-06
7.36688e-08
8.30878e-06
-6.64564e-08
8.31626e-06
1.15545e-08
8.29972e-06
-4.06445e-08
8.29294e-06
-7.81567e-08
8.29234e-06
2.11434e-08
8.27922e-06
6.49212e-09
8.27857e-06
3.39722e-08
8.27816e-06
7.51668e-08
8.27073e-06
5.72541e-08
8.2689e-06
6.10681e-08
8.2686e-06
8.31831e-08
8.26503e-06
8.42071e-08
8.26302e-06
8.73356e-08
8.26399e-06
1.00974e-07
8.26506e-06
1.11499e-07
8.26651e-06
1.17835e-07
8.26983e-06
1.24448e-07
8.27469e-06
1.31321e-07
1.3497e-07
8.2802e-06
8.70642e-06
6.89102e-08
8.70564e-06
-6.56749e-08
8.71359e-06
3.60446e-09
8.6971e-06
-2.41588e-08
8.68717e-06
-6.82261e-08
8.68634e-06
2.19792e-08
8.67324e-06
1.95917e-08
8.67059e-06
3.66145e-08
8.67099e-06
7.47672e-08
8.66437e-06
6.38785e-08
8.66139e-06
6.40486e-08
8.66115e-06
8.34213e-08
8.6584e-06
8.69543e-08
8.65652e-06
8.92223e-08
8.65765e-06
9.984e-08
8.65909e-06
1.10058e-07
8.66097e-06
1.15955e-07
8.66445e-06
1.20967e-07
8.6695e-06
1.26271e-07
1.29205e-07
8.67527e-06
9.12217e-06
6.43575e-08
9.12123e-06
-6.47334e-08
9.12875e-06
-3.91839e-09
9.11207e-06
-7.47996e-09
9.09995e-06
-5.6105e-08
9.09915e-06
2.27779e-08
9.08662e-06
3.21276e-08
9.08181e-06
4.14213e-08
9.08244e-06
7.41434e-08
9.07692e-06
6.93945e-08
9.07312e-06
6.78477e-08
9.07262e-06
8.3927e-08
9.0706e-06
8.89665e-08
9.06905e-06
9.07792e-08
9.07031e-06
9.8572e-08
9.0721e-06
1.08274e-07
9.0744e-06
1.13652e-07
9.07807e-06
1.17301e-07
9.08327e-06
1.21064e-07
1.23215e-07
9.08926e-06
9.55782e-06
5.9998e-08
9.55467e-06
-6.15839e-08
9.56062e-06
-9.8716e-09
9.54548e-06
7.66796e-09
9.5321e-06
-4.2726e-08
9.5316e-06
2.32713e-08
9.5202e-06
4.35352e-08
9.51327e-06
4.83502e-08
9.51345e-06
7.39563e-08
9.50915e-06
7.36972e-08
9.50498e-06
7.20168e-08
9.504e-06
8.49126e-08
9.50255e-06
9.04102e-08
9.50146e-06
9.187e-08
9.50282e-06
9.72087e-08
9.50499e-06
1.06113e-07
9.5077e-06
1.10938e-07
9.51156e-06
1.13438e-07
9.5169e-06
1.1573e-07
1.17032e-07
9.52308e-06
1.00143e-05
5.58201e-08
1.00074e-05
-5.46623e-08
1.00125e-05
-1.4967e-08
9.99904e-06
2.11117e-08
9.98478e-06
-2.84603e-08
9.98451e-06
2.35369e-08
9.97474e-06
5.33097e-08
9.96603e-06
5.70529e-08
9.9651e-06
7.48864e-08
9.96188e-06
7.69165e-08
9.95781e-06
7.60932e-08
9.95632e-06
8.63976e-08
9.95523e-06
9.15017e-08
9.95462e-06
9.24805e-08
9.9561e-06
9.57309e-08
9.95867e-06
1.03544e-07
9.9618e-06
1.07804e-07
9.96588e-06
1.09355e-07
9.97132e-06
1.10293e-07
1.1069e-07
9.97766e-06
1.04927e-05
5.17913e-08
1.04825e-05
-4.4532e-08
1.04872e-05
-1.96255e-08
1.04749e-05
3.34567e-08
1.04593e-05
-1.2886e-08
1.04588e-05
2.4027e-08
1.0451e-05
6.10825e-08
1.04411e-05
6.6947e-08
1.04386e-05
7.74484e-08
1.0436e-05
7.94356e-08
1.04324e-05
7.9705e-08
1.04306e-05
8.82036e-08
1.04297e-05
9.24443e-08
1.04295e-05
9.26964e-08
1.04311e-05
9.4107e-08
1.04341e-05
1.00559e-07
1.04377e-05
1.04225e-07
1.0442e-05
1.05016e-07
1.04475e-05
1.04762e-07
1.0423e-07
1.0454e-05
1.0994e-05
4.78538e-08
1.09864e-05
-3.69315e-08
1.09857e-05
-1.89211e-08
1.0974e-05
4.50708e-08
1.0957e-05
4.14514e-09
1.09555e-05
2.54935e-08
1.09499e-05
6.67714e-08
1.09395e-05
7.73161e-08
1.0935e-05
8.18851e-08
1.09327e-05
8.18104e-08
1.09297e-05
8.26679e-08
1.09279e-05
9.00455e-08
1.0927e-05
9.33384e-08
1.0927e-05
9.26266e-08
1.09288e-05
9.23806e-08
1.09322e-05
9.71425e-08
1.09362e-05
1.00174e-07
1.09409e-05
1.00375e-07
1.09465e-05
9.91229e-08
9.76816e-08
1.09531e-05
1.15192e-05
4.40409e-08
1.15068e-05
-2.45846e-08
1.15074e-05
-1.94671e-08
1.14976e-05
5.47985e-08
1.14794e-05
2.24428e-08
1.1476e-05
2.88694e-08
1.14721e-05
7.06009e-08
1.1462e-05
8.74117e-08
1.14558e-05
8.81143e-08
1.1453e-05
8.46457e-08
1.14506e-05
8.5021e-08
1.1449e-05
9.16511e-08
1.14482e-05
9.41522e-08
1.14485e-05
9.23409e-08
1.14502e-05
9.06653e-08
1.14541e-05
9.32979e-08
1.14586e-05
9.56462e-08
1.14636e-05
9.53763e-08
1.14694e-05
9.3341e-08
9.10589e-08
1.1476e-05
1.20695e-05
4.03685e-08
1.20552e-05
-1.03256e-08
1.20538e-05
-1.79965e-08
1.20465e-05
6.20891e-08
1.20275e-05
4.14363e-08
1.20215e-05
3.48578e-08
1.20189e-05
7.32008e-08
1.20098e-05
9.65491e-08
1.20021e-05
9.58092e-08
1.19983e-05
8.84408e-08
1.19963e-05
8.70138e-08
1.19951e-05
9.28395e-08
1.19945e-05
9.47645e-08
1.19949e-05
9.18878e-08
1.19966e-05
8.8972e-08
1.20008e-05
8.91354e-08
1.20058e-05
9.06552e-08
1.20112e-05
8.9971e-08
1.20172e-05
8.73641e-08
8.43459e-08
1.20239e-05
1.26461e-05
3.68961e-08
1.26309e-05
4.84864e-09
1.26275e-05
-1.4575e-08
1.26217e-05
6.78615e-08
1.26025e-05
6.06701e-08
1.25935e-05
4.38244e-08
1.25912e-05
7.54638e-08
1.25835e-05
1.04243e-07
1.25749e-05
1.04451e-07
1.25698e-05
9.34879e-08
1.25678e-05
8.90425e-08
1.25671e-05
9.35696e-08
1.25668e-05
9.50465e-08
1.25674e-05
9.13293e-08
1.25693e-05
8.70882e-08
1.25735e-05
8.49208e-08
1.25789e-05
8.52061e-08
1.25847e-05
8.41559e-08
1.2591e-05
8.11124e-08
7.74929e-08
1.25978e-05
1.32501e-05
3.36879e-08
1.32369e-05
1.8105e-08
1.32296e-05
-7.24248e-09
1.32245e-05
7.29602e-08
1.32055e-05
7.96715e-08
1.31935e-05
5.58207e-08
1.31905e-05
7.83989e-08
1.31844e-05
1.10355e-07
1.31754e-05
1.13439e-07
1.31691e-05
9.98204e-08
1.31666e-05
9.15613e-08
1.31662e-05
9.39519e-08
1.31663e-05
9.49349e-08
1.3167e-05
9.06119e-08
1.31693e-05
8.48432e-08
1.31733e-05
8.08672e-08
1.31793e-05
7.92553e-08
1.31854e-05
7.80701e-08
1.3192e-05
7.44489e-08
7.04146e-08
1.31991e-05
1.3883e-05
3.08909e-08
1.38704e-05
3.07017e-08
1.38602e-05
2.87461e-09
1.38558e-05
7.74041e-08
1.38377e-05
9.77977e-08
1.38228e-05
7.06675e-08
1.38183e-05
8.29214e-08
1.38135e-05
1.15184e-07
1.38048e-05
1.22159e-07
1.37973e-05
1.07252e-07
1.37939e-05
9.49515e-08
1.37936e-05
9.42567e-08
1.37941e-05
9.44326e-08
1.37952e-05
8.95921e-08
1.37977e-05
8.22841e-08
1.38017e-05
7.69125e-08
1.38081e-05
7.28039e-08
1.38143e-05
7.1904e-08
1.38215e-05
6.72253e-08
6.30008e-08
1.38289e-05
1.45459e-05
2.86638e-08
1.45323e-05
4.42574e-08
1.4521e-05
1.42258e-08
1.45169e-05
8.14948e-08
1.45003e-05
1.14386e-07
1.4483e-05
8.79258e-08
1.44763e-05
8.97173e-08
1.4472e-05
1.19415e-07
1.4464e-05
1.30145e-07
1.44558e-05
1.1546e-07
1.44514e-05
9.93972e-08
1.44508e-05
9.48772e-08
1.44516e-05
9.36021e-08
1.4453e-05
8.8191e-08
1.44557e-05
7.95769e-08
1.446e-05
7.26454e-08
1.44664e-05
6.6385e-08
1.44732e-05
6.51353e-08
1.44806e-05
5.97478e-08
5.50416e-08
1.44886e-05
1.52404e-05
2.71206e-08
1.52285e-05
5.62127e-08
1.5214e-05
2.86582e-08
1.52091e-05
8.64186e-08
1.51945e-05
1.29046e-07
1.51755e-05
1.06869e-07
1.5166e-05
9.92342e-08
1.51615e-05
1.2388e-07
1.51544e-05
1.37256e-07
1.51458e-05
1.24066e-07
1.51403e-05
1.04905e-07
1.5139e-05
9.61756e-08
1.514e-05
9.26507e-08
1.51417e-05
8.64429e-08
1.51446e-05
7.66844e-08
1.51493e-05
6.79119e-08
1.51553e-05
6.04235e-08
1.51633e-05
5.71299e-08
1.51707e-05
5.23207e-08
4.6535e-08
1.51792e-05
1.5968e-05
2.64373e-08
1.59571e-05
6.70858e-08
1.59403e-05
4.55469e-08
1.59342e-05
9.24642e-08
1.59213e-05
1.41949e-07
1.59016e-05
1.26621e-07
1.58891e-05
1.11642e-07
1.58837e-05
1.29357e-07
1.58772e-05
1.43711e-07
1.58685e-05
1.32737e-07
1.58621e-05
1.11389e-07
1.58599e-05
9.83497e-08
1.58606e-05
9.19565e-08
1.58626e-05
8.44051e-08
1.58658e-05
7.35338e-08
1.58707e-05
6.29407e-08
1.58768e-05
5.43869e-08
1.58852e-05
4.87315e-08
1.58938e-05
4.3677e-08
3.83877e-08
1.5902e-05
1.67303e-05
2.67248e-08
1.6718e-05
7.93992e-08
1.67017e-05
6.18655e-08
1.66939e-05
1.00198e-07
1.66823e-05
1.53595e-07
1.66625e-05
1.46443e-07
1.66474e-05
1.26763e-07
1.66402e-05
1.3655e-07
1.66339e-05
1.49964e-07
1.66254e-05
1.41278e-07
1.6618e-05
1.18776e-07
1.66148e-05
1.01499e-07
1.66149e-05
9.19122e-08
1.6617e-05
8.22377e-08
1.66204e-05
7.01337e-08
1.66255e-05
5.79304e-08
1.66321e-05
4.7762e-08
1.66406e-05
4.02154e-08
1.665e-05
3.42774e-08
2.93699e-08
1.6659e-05
1.75291e-05
2.79514e-08
1.75218e-05
8.67189e-08
1.75009e-05
8.27463e-08
1.74901e-05
1.11065e-07
1.74791e-05
1.64593e-07
1.74597e-05
1.65836e-07
1.74422e-05
1.44208e-07
1.74328e-05
1.46015e-07
1.74261e-05
1.56608e-07
1.74177e-05
1.49684e-07
1.74096e-05
1.26938e-07
1.74053e-05
1.058e-07
1.74044e-05
9.27744e-08
1.74064e-05
8.02677e-08
1.74099e-05
6.65809e-08
1.74151e-05
5.27265e-08
1.74222e-05
4.06564e-08
1.74311e-05
3.13646e-08
1.7441e-05
2.43221e-08
1.89775e-08
1.74514e-05
1.83662e-05
3.01434e-08
1.83572e-05
9.56475e-08
1.83383e-05
1.01662e-07
1.83245e-05
1.24851e-07
1.83134e-05
1.75739e-07
1.82947e-05
1.84541e-07
1.82754e-05
1.63512e-07
1.82633e-05
1.5809e-07
1.82556e-05
1.64309e-07
1.82471e-05
1.58203e-07
1.82382e-05
1.35763e-07
1.82325e-05
1.115e-07
1.82306e-05
9.47269e-08
1.8232e-05
7.88953e-08
1.82355e-05
6.30493e-08
1.8241e-05
4.72588e-08
1.82485e-05
3.31358e-08
1.82579e-05
2.19294e-08
1.82688e-05
1.34768e-08
7.43926e-09
1.82803e-05
1.92433e-05
3.32512e-08
1.92361e-05
1.02874e-07
1.92158e-05
1.21868e-07
1.91991e-05
1.41556e-07
1.91872e-05
1.87698e-07
1.91691e-05
2.0264e-07
1.91484e-05
1.84181e-07
1.91336e-05
1.72907e-07
1.91242e-05
1.73731e-07
1.91151e-05
1.67254e-07
1.91055e-05
1.45365e-07
1.90983e-05
1.18773e-07
1.9095e-05
9.7977e-08
1.90953e-05
7.86123e-08
1.90985e-05
5.98389e-08
1.91041e-05
4.16305e-08
1.91121e-05
2.51168e-08
1.91224e-05