/*--------------------------------*- C++ -*----------------------------------*\
| =========                 |                                                 |
| \\      /  F ield         | OpenFOAM: The Open Source CFD Toolbox           |
|  \\    /   O peration     | Version:  v2012                                 |
|   \\  /    A nd           | Website:  www.openfoam.com                      |
|    \\/     M anipulation  |                                                 |
\*---------------------------------------------------------------------------*/
FoamFile
{
    version     2.0;
    format      ascii;
    class       volScalarField;
    location    "0.25";
    object      p;
}
// * * * * * * * * * * * * * * * * * * * * * * * * * * * * * * * * * * * * * //

dimensions      [0 2 -2 0 0 0 0];


internalField   nonuniform List<scalar> 
17600
(
-1.66658e-11
0.000306838
0.000379476
0.000511414
0.000459743
0.000466095
0.00114935
0.00142489
0.00197692
0.00159134
0.00228889
0.00210687
0.00325113
0.00301215
0.00388394
0.00386981
0.00461416
0.0057789
0.0072922
0.0108666
1.47871e-06
0.000305511
0.000380252
0.000508177
0.00045993
0.000465194
0.00114977
0.00142372
0.00197753
0.00158836
0.00229087
0.00209865
0.00325439
0.00299717
0.00388737
0.00383883
0.00462022
0.00570083
0.00730098
0.0105129
2.97123e-06
0.00030343
0.000381517
0.000504511
0.000460294
0.000463855
0.00115007
0.00142155
0.00197778
0.00158311
0.00229132
0.00208545
0.00325619
0.00297482
0.00389012
0.0037999
0.00462615
0.00561946
0.00729323
0.0100308
4.24226e-06
0.000301218
0.000382955
0.000500611
0.000460419
0.000462424
0.00114986
0.00141871
0.00197735
0.00157578
0.00228976
0.00206953
0.00325479
0.00295148
0.00388904
0.00376559
0.00462674
0.00555242
0.00725722
0.00959418
5.5177e-06
0.000298845
0.000384568
0.000496327
0.000460214
0.00046091
0.00114922
0.00141534
0.00197656
0.00156669
0.00228788
0.00205151
0.00325335
0.00292803
0.00388763
0.00373466
0.00462324
0.00549262
0.00718884
0.00918452
6.89009e-06
0.000296221
0.000386371
0.00049159
0.000459767
0.000459317
0.00114837
0.00141166
0.00197576
0.00155668
0.00228623
0.00203248
0.0032529
0.00290488
0.00388716
0.00370528
0.00461568
0.0054333
0.0070859
0.00880436
8.34918e-06
0.00029333
0.000388343
0.00048646
0.000459189
0.000457654
0.00114748
0.0014079
0.00197504
0.00154628
0.00228442
0.00201328
0.00325229
0.00288284
0.00388541
0.00367764
0.00460157
0.00537343
0.00695018
0.00844952
9.87363e-06
0.00029019
0.000390471
0.000481024
0.000458538
0.000455902
0.00114667
0.00140417
0.0019743
0.00153564
0.00228197
0.00199413
0.00325054
0.00286235
0.00387993
0.00365347
0.00457695
0.00531431
0.00678483
0.00811137
1.14655e-05
0.000286815
0.000392747
0.000475336
0.000457815
0.000454017
0.00114596
0.00140047
0.00197341
0.00152472
0.00227856
0.00197512
0.00324714
0.00284371
0.00386944
0.00363432
0.00453869
0.00525667
0.00659319
0.00778054
1.31429e-05
0.000283206
0.000395167
0.000469404
0.000456987
0.000451955
0.00114533
0.00139678
0.00197225
0.0015135
0.00227398
0.00195644
0.00324157
0.00282757
0.00385303
0.00362042
0.0044854
0.0052004
0.00637898
0.00744897
1.49266e-05
0.000279347
0.000397723
0.000463218
0.000456017
0.000449682
0.00114477
0.0013931
0.00197073
0.00150196
0.00226806
0.00193838
0.00323318
0.00281481
0.00382949
0.00361196
0.00441672
0.00514324
0.00614741
0.00711094
1.6835e-05
0.000275213
0.000400406
0.000456767
0.000454869
0.000447185
0.00114424
0.00138946
0.00196876
0.00149019
0.00226053
0.00192134
0.00322126
0.00280624
0.00379753
0.00360899
0.00433296
0.00508084
0.00590525
0.00676346
1.8885e-05
0.000270774
0.000403212
0.000450047
0.000453513
0.000444462
0.00114373
0.00138593
0.00196621
0.00147836
0.00225103
0.00190584
0.00320506
0.00280253
0.00375632
0.00361064
0.0042354
0.00500826
0.00565977
0.00640606
2.10935e-05
0.000265998
0.000406132
0.000443059
0.000451915
0.000441523
0.00114318
0.00138259
0.00196291
0.0014667
0.00223912
0.00189243
0.00318378
0.00280408
0.00370557
0.00361491
0.00412659
0.00492069
0.00541693
0.00604019
2.34776e-05
0.000260852
0.000409161
0.000435814
0.000450035
0.000438392
0.00114254
0.00137952
0.00195867
0.00145549
0.0022243
0.00188167
0.00315676
0.00281094
0.0036455
0.00361916
0.00401012
0.00481365
0.00518001
0.00566885
2.60544e-05
0.000255302
0.000412287
0.000428331
0.000447823
0.000435106
0.00114173
0.00137685
0.00195323
0.00144506
0.00220605
0.00187402
0.00312358
0.00282262
0.00357709
0.00362024
0.00388966
0.00468413
0.00494987
0.00529631
2.88389e-05
0.000249319
0.000415491
0.000420641
0.000445216
0.000431711
0.00114062
0.00137478
0.00194626
0.00143576
0.0021839
0.00186989
0.00308401
0.00283803
0.00350207
0.00361463
0.00376845
0.00453128
0.00472557
0.0049273
3.18416e-05
0.000242885
0.000418743
0.000412788
0.000442137
0.000428283
0.00113907
0.00137352
0.00193743
0.00142782
0.0021575
0.00186945
0.00303833
0.00285565
0.00342242
0.0035988
0.00364877
0.00435647
0.00450485
0.00456665
3.50635e-05
0.000235992
0.000422003
0.000404829
0.000438481
0.000424955
0.00113682
0.00137332
0.00192647
0.00142141
0.00212665
0.00187171
0.00298743
0.00287352
0.00334024
0.00356982
0.00353127
0.0041627
0.0042852
0.00421912
3.84965e-05
0.000228644
0.000425218
0.000396857
0.000434094
0.0004219
0.00113366
0.00137429
0.00191317
0.00141668
0.0020913
0.00187605
0.00293256
0.00288955
0.00325765
0.00352567
0.00341531
0.00395376
0.00406422
0.00388879
4.2122e-05
0.000220866
0.000428307
0.000389008
0.0004288
0.000419243
0.00112944
0.0013766
0.00189728
0.00141352
0.00205175
0.00188148
0.00287496
0.00290185
0.00317621
0.00346528
0.00329973
0.00373339
0.00383946
0.00357801
4.59061e-05
0.000212721
0.000431149
0.000381456
0.000422418
0.000417081
0.00112394
0.0013804
0.00187879
0.00141131
0.00200879
0.00188692
0.00281571
0.00290883
0.00309647
0.00338885
0.00318337
0.00350486
0.00360837
0.00328729
4.97917e-05
0.000204324
0.000433604
0.000374359
0.000414764
0.000415563
0.00111693
0.00138564
0.00185809
0.00140934
0.00196325
0.00189132
0.0027557
0.00290906
0.00301831
0.00329756
0.00306513
0.00327104
0.0033689
0.00301539
5.36863e-05
0.000195826
0.000435529
0.00036786
0.000405676
0.000414759
0.00110833
0.00139206
0.00183563
0.00141047
0.00191589
0.00189378
0.00269562
0.00290139
0.00294125
0.00319265
0.00294375
0.00303505
0.00312029
0.00275944
5.74777e-05
0.000187409
0.000436737
0.00036213
0.000395067
0.000414636
0.00109823
0.00139916
0.00181176
0.00140616
0.00186749
0.00189361
0.00263579
0.00288521
0.00286449
0.00307485
0.00281808
0.00280081
0.00286345
0.00251518
6.1029e-05
0.000179305
0.000437057
0.000357293
0.000382888
0.000416065
0.00108682
0.00140617
0.00178738
0.00139986
0.00181804
0.00189028
0.00257634
0.00286036
0.00278714
0.00294481
0.00268719
0.00257271
0.00260111
0.00227787
6.41426e-05
0.000171791
0.000436391
0.000353333
0.000369099
0.000416543
0.00107453
0.00141219
0.00176334
0.00139136
0.00176703
0.00188343
0.00251733
0.00282663
0.00270839
0.00280366
0.00254981
0.00235429
0.00233788
0.00204395
6.66222e-05
0.000165163
0.000434617
0.000350205
0.000353782
0.000416632
0.00106215
0.00141649
0.00173983
0.00138092
0.00171416
0.0018724
0.00245865
0.00278378
0.00262749
0.00265291
0.00240426
0.00214698
0.00207947
0.00181239
6.82488e-05
0.000159727
0.000431644
0.000348524
0.000337175
0.000415543
0.00105051
0.00141806
0.00171652
0.00136927
0.00165941
0.00185614
0.00239997
0.00273188
0.00254387
0.0024942
0.00224886
0.00195002
0.00183126
0.00158483
6.87697e-05
0.000155712
0.000427553
0.000346607
0.000319831
0.000412428
0.00103988
0.00141807
0.00169256
0.00135679
0.00160313
0.00183357
0.00234059
0.0026715
0.00245735
0.00232901
0.00208222
0.00176105
0.00159728
0.00136494
6.79559e-05
0.000153285
0.000422571
0.00034449
0.000302577
0.000406577
0.00103014
0.00141698
0.00166673
0.00134308
0.0015462
0.0018038
0.00227925
0.00260312
0.00236845
0.00215967
0.00190353
0.00157699
0.00137962
0.00115683
6.55921e-05
0.000152586
0.000417071
0.000341563
0.000286123
0.000397721
0.00102089
0.00141586
0.00163815
0.00132733
0.00148967
0.00176648
0.00221414
0.00252643
0.00227807
0.00199063
0.00171384
0.00139377
0.00117757
0.000963237
6.15209e-05
0.000153586
0.000411618
0.000336999
0.000270853
0.000385878
0.00101114
0.00141611
0.00160709
0.00130766
0.00143389
0.0017223
0.0021437
0.00244037
0.0021861
0.00182749
0.00151765
0.00120716
0.000987373
0.00078439
5.56797e-05
0.00015599
0.000407045
0.000330014
0.000256655
0.000371609
0.000999395
0.00141859
0.00157435
0.00128179
0.00137833
0.00167295
0.00206741
0.00234377
0.00209048
0.00167407
0.00132276
0.00101598
0.000803529
0.000617748
4.80404e-05
0.000159334
0.000404462
0.000320113
0.000243068
0.000356005
0.000983875
0.00142273
0.00154159
0.00124805
0.00132174
0.0016205
0.00198593
0.00223586
0.00198783
0.00153019
0.00113692
0.000824871
0.000621824
0.000458469
3.86281e-05
0.00016338
0.000404948
0.000307183
0.000229139
0.000340746
0.000963046
0.00142742
0.00151169
0.00120591
0.00126065
0.00156621
0.00190175
0.00211694
0.00187501
0.00139252
0.00096483
0.000642547
0.000443038
0.000301496
2.75836e-05
0.000167431
0.000409242
0.000291512
0.000213353
0.000327919
0.000936836
0.00143015
0.00148745
0.00115611
0.00119013
0.00150916
0.00181932
0.00198946
0.00174903
0.00125678
0.000807009
0.000476529
0.000273837
0.000145268
1.52486e-05
0.00016988
0.000417744
0.000273703
0.000193613
0.0003185
0.000905897
0.0014271
0.00146966
0.00110157
0.00110665
0.00144634
0.00174322
0.00185897
0.00160802
0.00111788
0.000660391
0.000329247
0.000122363
-5.63428e-06
2.21664e-06
0.000169372
0.00043073
0.000256345
0.000167382
0.000311882
0.000872429
0.0014146
0.00145694
0.00104807
0.00100957
0.00137159
0.0016741
0.00173405
0.00145483
0.000969631
0.000519617
0.000198924
-6.39542e-06
-0.000141951
-1.0946e-05
0.00016496
0.00044767
0.000241724
0.000132361
0.000306849
0.000840226
0.00139031
0.00144707
0.00100148
0.000901677
0.00127744
0.0016064
0.00162326
0.00129822
0.000807923
0.000377277
8.1321e-05
-0.000111568
-0.000254851
-2.30674e-05
0.000154895
0.000467166
0.000233177
8.7402e-05
0.000300843
0.000813661
0.00135402
0.00143402
0.000965002
0.000788257
0.00116009
0.00153205
0.00153028
0.00115036
0.000635593
0.000225151
-3.14897e-05
-0.000196874
-0.00034039
-3.36693e-05
0.000139192
0.000486937
0.000234188
3.32995e-05
0.000289035
0.000796496
0.00130774
0.00140958
0.000937241
0.000678025
0.00102172
0.00144136
0.00144999
0.0010233
0.000464418
5.86442e-05
-0.000150854
-0.000271164
-0.000400454
-4.22264e-05
0.00011774
0.000504138
0.000247049
-2.808e-05
0.000265648
0.000789998
0.00125599
0.00136771
0.000914246
0.00058043
0.000868821
0.00132586
0.00137203
0.000922355
0.000309625
-0.000116896
-0.000286999
-0.000347666
-0.000443029
-4.80534e-05
9.05156e-05
0.00051584
0.000272964
-9.48917e-05
0.000224679
0.000791635
0.00120761
0.00130645
0.000888665
0.000501354
0.000710477
0.0011824
0.00128527
0.000842523
0.000183852
-0.00028533
-0.000442004
-0.000440971
-0.000482513
-5.07731e-05
5.8236e-05
0.00051851
0.000312902
-0.000156484
0.000160592
0.000796583
0.00117251
0.00122855
0.000848548
0.000439167
0.000560402
0.00101614
0.00117775
0.000772472
9.05779e-05
-0.000429748
-0.000604312
-0.000560036
-0.000536756
-5.03103e-05
2.232e-05
0.000508922
0.000365364
-0.000207938
7.13073e-05
0.000796323
0.00115755
0.00114029
0.000782636
0.000385394
0.000432227
0.000839422
0.00104138
0.000698727
2.33655e-05
-0.00053924
-0.000753625
-0.000700617
-0.000620723
-4.67694e-05
-1.54656e-05
0.000484575
0.000426159
-0.00024119
-4.08139e-05
0.000779179
0.00116387
0.00105254
0.000686708
0.000328384
0.000331364
0.000668355
0.000878666
0.000605564
-3.06624e-05
-0.000612228
-0.000872875
-0.000843515
-0.000736941
-4.07862e-05
-5.29811e-05
0.00044417
0.000489452
-0.000249391
-0.000170655
0.000732129
0.00118576
0.000981547
0.000565729
0.00025222
0.000251443
0.000520816
0.000703769
0.000481716
-8.90059e-05
-0.000657752
-0.000952514
-0.000965994
-0.000870393
-3.33292e-05
-8.7985e-05
0.00038775
0.000548338
-0.000229671
-0.000310824
0.000647086
0.00121504
0.000941803
0.000430918
0.000142237
0.00017866
0.000408579
0.000535957
0.000328842
-0.000171089
-0.000693395
-0.000994196
-0.00105137
-0.000995194
-2.55011e-05
-0.000118256
0.000316806
0.000595236
-0.000181844
-0.000444355
0.000520628
0.00123796
0.000940022
0.000297278
-6.84315e-06
9.46026e-05
0.000329198
0.000397043
0.000163176
-0.000289161
-0.000741779
-0.0010132
-0.00109276
-0.00108841
-1.87634e-05
-0.000142069
0.00023425
0.000623108
-0.00010591
-0.000559977
0.000352306
0.00123555
0.000973393
0.000186122
-0.000187726
-2.1392e-05
0.000266572
0.000302741
8.69411e-06
-0.000440602
-0.000824717
-0.00103321
-0.0010988
-0.00113584
-1.4604e-05
-0.000159047
0.000143892
0.000627331
-9.81325e-06
-0.000646334
0.000149439
0.00118877
0.00103147
0.000119211
-0.000383883
-0.000184038
0.000199861
0.000252342
-0.00010847
-0.000604772
-0.000953732
-0.00108139
-0.00109296
-0.00113745
-1.43017e-05
-0.000169518
4.40114e-05
0.000604428
9.49593e-05
-0.000693109
-7.54599e-05
0.00108467
0.00109767
0.0001086
-0.000573566
-0.000395522
0.000104291
0.000229349
-0.000170842
-0.000751824
-0.00112164
-0.00118048
-0.00110444
-0.00111114
-1.88321e-05
-0.000173708
-4.24771e-05
0.000552444
0.000197169
-0.000696034
-0.000305265
0.000919527
0.0011491
0.000153103
-0.000729302
-0.000642732
-4.29442e-05
0.000210316
-0.000178277
-0.000852843
-0.00130064
-0.00133767
-0.00116291
-0.00108492
-2.88212e-05
-0.000172526
-0.00012031
0.000472935
0.00028431
-0.000656238
-0.000518637
0.00069902
0.00116128
0.000240506
-0.000825588
-0.000902289
-0.000252835
0.000165636
-0.000147146
-0.000889918
-0.00145664
-0.0015367
-0.00128752
-0.00109204
-4.45457e-05
-0.000168105
-0.00018566
0.000370625
0.00034613
-0.000576227
-0.000700821
0.000436189
0.00111404
0.000351085
-0.000848934
-0.00114552
-0.00051863
6.66654e-05
-0.000103381
-0.000861715
-0.00155917
-0.00174324
-0.00147672
-0.00116228
-6.57492e-05
-0.00016334
-0.000236614
0.000252316
0.000375013
-0.000477446
-0.000827433
0.00014797
0.000996636
0.000456975
-0.000801505
-0.0013409
-0.000817928
-0.000103791
-8.04391e-05
-0.000784698
-0.00158999
-0.00192111
-0.00170621
-0.00130863
-9.18704e-05
-0.000160954
-0.000273114
0.000126382
0.000365959
-0.000368749
-0.000901082
-0.000143706
0.000809517
0.000528551
-0.000698886
-0.00146302
-0.00112077
-0.000345401
-0.000111133
-0.000687241
-0.00154784
-0.00203956
-0.00193875
-0.00152044
-0.000122029
-0.000162984
-0.000296507
1.42156e-06
0.000318315
-0.000265185
-0.00091479
-0.000414117
0.000564576
0.000542349
-0.000564978
-0.00150215
-0.00139305
-0.000639675
-0.000216633
-0.00060495
-0.0014505
-0.00208183
-0.00213836
-0.0017681
-0.00015514
-0.000170909
-0.000309619
-0.000114533
0.000236938
-0.000183049
-0.000889086
-0.000642032
0.00028083
0.00048572
-0.000431142
-0.00146628
-0.00160419
-0.000955907
-0.000400907
-0.000572262
-0.00132744
-0.00204959
-0.00227681
-0.00201391
-0.000190347
-0.000185873
-0.000318063
-0.000215558
0.000130303
-0.000134177
-0.000833034
-0.000814735
-1.77426e-05
0.00035833
-0.000327829
-0.00137486
-0.00173648
-0.00125926
-0.00064898
-0.000611868
-0.00121459
-0.00196192
-0.00234114
-0.00222414
-0.000226629
-0.000208329
-0.000324698
-0.000299197
8.08243e-06
-0.000123808
-0.000763307
-0.00092988
-0.000305822
0.000171328
-0.000277265
-0.0012543
-0.0017893
-0.00151813
-0.000931681
-0.000729044
-0.00114521
-0.00184746
-0.00233636
-0.00237608
-0.000262901
-0.000237711
-0.000333317
-0.000366263
-0.000119727
-0.000150953
-0.000696848
-0.000993894
-0.000561989
-5.67401e-05
-0.000290078
-0.00113537
-0.00177663
-0.00171233
-0.00121642
-0.000911048
-0.00114034
-0.0017397
-0.0022803
-0.00246133
-0.000298969
-0.000272872
-0.000347156
-0.000419581
-0.000243576
-0.000209948
-0.000647817
-0.00101789
-0.00077262
-0.000303685
-0.000365121
-0.00104415
-0.00171945
-0.00183602
-0.00147391
-0.00113265
-0.00120395
-0.0016673
-0.00219891
-0.00248471
-0.000334746
-0.000312407
-0.000368183
-0.000462806
-0.000356883
-0.000292785
-0.000624636
-0.00101644
-0.000933514
-0.000546996
-0.000491488
-0.000997037
-0.00164322
-0.00189689
-0.0016844
-0.00136569
-0.00132479
-0.00164662
-0.00212056
-0.00246302
-0.000370411
-0.000354879
-0.000396795
-0.000499938
-0.000456619
-0.00039029
-0.000629934
-0.00100503
-0.00104861
-0.000768372
-0.00065204
-0.00100007
-0.00157225
-0.00191013
-0.00184001
-0.00158552
-0.00148263
-0.00167977
-0.00206794
-0.00242014
-0.00040622
-0.000398964
-0.000432302
-0.000534861
-0.000542522
-0.000493458
-0.000661617
-0.000996596
-0.00112704
-0.000956885
-0.000827927
-0.00104971
-0.00152436
-0.00189511
-0.00194378
-0.00177505
-0.00165526
-0.00175768
-0.00205277
-0.0023787
-0.0004424
-0.000443627
-0.000473414
-0.000570551
-0.000616153
-0.000594941
-0.000714346
-0.000999544
-0.00117974
-0.0011093
-0.00100204
-0.00113515
-0.00150871
-0.00187135
-0.00200525
-0.00192623
-0.00182353
-0.00186528
-0.00207585
-0.00235455
-0.000479112
-0.000488204
-0.000518533
-0.000608695
-0.000680045
-0.000689949
-0.000781397
-0.00101754
-0.00121802
-0.00122847
-0.00116196
-0.00124233
-0.00152603
-0.0018542
-0.00203808
-0.00203897
-0.00197397
-0.0019864
-0.00213031
-0.00235507
-0.000516384
-0.00053227
-0.000565956
-0.000649827
-0.000736975
-0.000776146
-0.000856107
-0.00105038
-0.00125123
-0.0013207
-0.00130106
-0.00135789
-0.00157077
-0.00185264
-0.0020565
-0.00211895
-0.00209952
-0.00210709
-0.00220553
-0.00238019
-0.00055408
-0.000575532
-0.000614146
-0.000693597
-0.000789353
-0.000853047
-0.000932734
-0.00109538
-0.00128545
-0.00139312
-0.00141786
-0.00147138
-0.00163428
-0.00186927
-0.00207194
-0.00217518
-0.00219909
-0.00221752
-0.00229031
-0.00242487
-0.000591897
-0.000617742
-0.00066184
-0.000739089
-0.000838881
-0.000921335
-0.00100704
-0.00114853
-0.00132348
-0.00145249
-0.00151413
-0.00157608
-0.00170768
-0.00190209
-0.00209151
-0.00221703
-0.00227591
-0.00231256
-0.00237527
-0.00248182
-0.000629387
-0.00065862
-0.000708046
-0.00078507
-0.000886435
-0.000982189
-0.00107639
-0.0012056
-0.00136567
-0.00150406
-0.00159311
-0.00166862
-0.0017835
-0.00194658
-0.00211803
-0.00225207
-0.00233547
-0.00239124
-0.00245402
-0.00254375
-0.00066597
-0.000697803
-0.000751971
-0.00083019
-0.00093211
-0.00103672
-0.00113948
-0.00126291
-0.00141082
-0.00155122
-0.00165848
-0.00174803
-0.00185623
-0.00199746
-0.0021512
-0.00228511
-0.00238336
-0.00245528
-0.00252324
-0.00260474
-0.00070095
-0.000734801
-0.000792948
-0.000873169
-0.000975444
-0.00108565
-0.00119579
-0.00131762
-0.00145686
-0.00159557
-0.0017136
-0.00181501
-0.00192242
-0.00204992
-0.00218884
-0.00231824
-0.00242389
-0.00250749
-0.00258209
-0.00266094
-0.000733529
-0.000768974
-0.000830339
-0.000912898
-0.00101572
-0.00112931
-0.0012451
-0.00136756
-0.00150139
-0.00163724
-0.00176086
-0.00187102
-0.00198041
-0.00210014
-0.00222797
-0.00235148
-0.00245964
-0.00255065
-0.0026312
-0.00271035
-0.000762809
-0.000799545
-0.000863464
-0.000948381
-0.00105203
-0.00116767
-0.00128741
-0.00141129
-0.00154212
-0.00167527
-0.0018014
-0.00191743
-0.00202957
-0.0021455
-0.00226577
-0.00238369
-0.00249157
-0.00258653
-0.0026715
-0.00275215
-0.000787799
-0.000825637
-0.000891563
-0.000978622
-0.00108329
-0.00120025
-0.00132263
-0.00144803
-0.00157734
-0.00170832
-0.00183527
-0.00195495
-0.00206979
-0.00218441
-0.0023001
-0.0024135
-0.00251972
-0.00261615
-0.00270383
-0.00278604
-0.000807393
-0.0008463
-0.000913831
-0.00100266
-0.00110838
-0.0012263
-0.0013504
-0.00147709
-0.00160578
-0.00173521
-0.00186206
-0.00198371
-0.0021007
-0.00221542
-0.00232898
-0.00243965
-0.00254427
-0.00264071
-0.00272932
-0.00281232
-0.000820058
-0.000860416
-0.000929501
-0.00101996
-0.00112694
-0.00124579
-0.00137109
-0.00149891
-0.00162778
-0.0017566
-0.00188315
-0.00200545
-0.00212342
-0.00223844
-0.00235133
-0.00246107
-0.00256546
-0.00266268
-0.00275253
-0.00283633
0.0133746
0.00789353
-0.000141248
-0.00593352
-0.00769896
-0.00723159
-0.00644982
-0.0059731
-0.00577707
-0.00574522
-0.00580114
-0.00588891
-0.00597203
-0.00604529
-0.00612144
-0.00620648
-0.00629457
-0.00637873
-0.00645938
-0.00654345
-0.00663711
-0.0067388
-0.00684003
-0.00693343
-0.00702041
-0.00710897
-0.00720322
-0.00729817
-0.00738645
-0.00746778
-0.00754807
-0.00763049
-0.0077114
-0.00778593
-0.00785394
-0.00791851
-0.00798056
-0.00803785
-0.00808917
-0.00813646
-0.00818233
-0.00822728
-0.00827082
-0.00831337
-0.00835581
-0.00839796
-0.00843943
-0.00848073
-0.00852297
-0.00856686
-0.00861229
-0.00865897
-0.00870649
-0.00875487
-0.00880486
-0.00885711
-0.00891154
-0.00896726
-0.00902401
-0.0090825
-0.00914313
-0.00920565
-0.00926965
-0.00933495
-0.00940193
-0.0094708
-0.00954125
-0.00961314
-0.00968644
-0.00976116
-0.00983739
-0.00991511
-0.00999424
-0.0100748
-0.0101567
-0.01024
-0.0103245
-0.0104103
-0.0104974
-0.0105858
-0.0106755
-0.0107664
-0.0108583
-0.0109514
-0.0110458
-0.0111416
-0.0112387
-0.0113372
-0.0114367
-0.0115372
-0.0116387
-0.0117411
-0.0118445
-0.0119491
-0.0120548
-0.0121617
-0.0122698
-0.0123791
-0.0124894
-0.0126009
-0.0127135
-0.0128273
-0.0129421
-0.0130579
-0.0131749
-0.0132929
-0.013412
-0.0135322
-0.0136534
-0.0137757
-0.0138991
-0.0140236
-0.0141493
-0.0142762
-0.0144043
-0.0145336
-0.014664
-0.0147957
-0.0149285
-0.0150625
-0.0151977
-0.0153342
-0.0154719
-0.0156109
-0.0157511
-0.0158926
-0.0160354
-0.0161795
-0.0163248
-0.0164715
-0.0166195
-0.0167689
-0.0169196
-0.0170716
-0.0172251
-0.0173799
-0.0175362
-0.0176938
-0.0178529
-0.0180134
-0.0181754
-0.0183388
-0.0185037
-0.0186701
-0.0188381
-0.0190075
-0.0191785
-0.019351
-0.019525
-0.0197007
-0.0198779
-0.0200567
-0.0202372
-0.0204192
-0.020603
-0.0207884
-0.0209754
-0.0211642
-0.0213546
-0.0215468
-0.0217407
-0.0219364
-0.0221338
-0.0223332
-0.022534
-0.0227372
-0.0229415
-0.0231485
-0.0233563
-0.0235674
-0.0237786
-0.0239938
-0.0242087
-0.0244278
-0.0246468
-0.0248693
-0.0250933
-0.0253185
-0.0255481
-0.0257758
-0.0260107
-0.0262421
-0.0264806
-0.0267179
-0.026958
-0.0272025
-0.0274443
-0.0276939
-0.027941
-0.0281911
-0.0284464
-0.0286963
-0.0289551
-0.0292106
-0.0294627
-0.0297259
-0.0299639
-0.0302155
-0.0304252
-0.0305784
0.0126465
0.00772953
-5.39186e-05
-0.00580631
-0.0076264
-0.00719683
-0.00642754
-0.00595683
-0.00576474
-0.00573535
-0.00579286
-0.0058818
-0.00596583
-0.00603983
-0.00611659
-0.00620217
-0.00629075
-0.00637531
-0.00645628
-0.00654062
-0.00663452
-0.00673644
-0.00683788
-0.00693146
-0.00701859
-0.00710728
-0.00720168
-0.00729676
-0.00738517
-0.00746661
-0.007547
-0.00762951
-0.00771052
-0.00778515
-0.00785322
-0.00791787
-0.00797999
-0.00803734
-0.00808872
-0.00813606
-0.00818197
-0.00822697
-0.00827054
-0.00831313
-0.0083556
-0.00839778
-0.00843927
-0.00848059
-0.00852284
-0.00856675
-0.0086122
-0.00865888
-0.00870642
-0.00875481
-0.0088048
-0.00885707
-0.0089115
-0.00896723
-0.00902398
-0.00908248
-0.00914311
-0.00920564
-0.00926964
-0.00933494
-0.00940193
-0.00947079
-0.00954124
-0.00961314
-0.00968644
-0.00976116
-0.00983738
-0.00991511
-0.00999424
-0.0100748
-0.0101567
-0.01024
-0.0103245
-0.0104103
-0.0104974
-0.0105858
-0.0106755
-0.0107664
-0.0108583
-0.0109514
-0.0110458
-0.0111416
-0.0112387
-0.0113372
-0.0114367
-0.0115372
-0.0116387
-0.0117411
-0.0118445
-0.0119491
-0.0120548
-0.0121617
-0.0122698
-0.0123791
-0.0124894
-0.0126009
-0.0127135
-0.0128273
-0.0129421
-0.0130579
-0.0131749
-0.0132929
-0.013412
-0.0135322
-0.0136534
-0.0137757
-0.0138991
-0.0140236
-0.0141493
-0.0142762
-0.0144043
-0.0145336
-0.014664
-0.0147957
-0.0149285
-0.0150625
-0.0151977
-0.0153342
-0.0154719
-0.0156109
-0.0157511
-0.0158926
-0.0160354
-0.0161795
-0.0163248
-0.0164715
-0.0166195
-0.0167689
-0.0169196
-0.0170716
-0.0172251
-0.0173799
-0.0175362
-0.0176938
-0.0178529
-0.0180134
-0.0181754
-0.0183388
-0.0185037
-0.0186701
-0.0188381
-0.0190075
-0.0191785
-0.019351
-0.019525
-0.0197007
-0.0198779
-0.0200567
-0.0202372
-0.0204192
-0.020603
-0.0207884
-0.0209754
-0.0211642
-0.0213546
-0.0215468
-0.0217407
-0.0219364
-0.0221338
-0.0223332
-0.022534
-0.0227372
-0.0229415
-0.0231485
-0.0233563
-0.0235674
-0.0237786
-0.0239938
-0.0242087
-0.0244278
-0.0246468
-0.0248693
-0.0250933
-0.0253185
-0.0255481
-0.0257758
-0.0260107
-0.0262421
-0.0264806
-0.0267179
-0.026958
-0.0272025
-0.0274443
-0.0276939
-0.027941
-0.0281911
-0.0284464
-0.0286963
-0.0289551
-0.0292106
-0.0294627
-0.0297259
-0.0299639
-0.0302155
-0.0304252
-0.0305784
0.0118884
0.00757514
0.000142045
-0.00555755
-0.00749116
-0.00714391
-0.00640003
-0.00593637
-0.00574856
-0.00572253
-0.00578244
-0.00587305
-0.00595833
-0.00603334
-0.00611091
-0.00619715
-0.00628629
-0.00637137
-0.00645279
-0.00653749
-0.00663169
-0.00673387
-0.00683553
-0.00692931
-0.00701662
-0.00710546
-0.0072
-0.00729522
-0.00738375
-0.00746531
-0.0075458
-0.00762843
-0.00770955
-0.00778427
-0.00785242
-0.00791714
-0.00797933
-0.00803676
-0.00808819
-0.0081356
-0.00818156
-0.00822661
-0.00827022
-0.00831284
-0.00835534
-0.00839756
-0.00843908
-0.00848042
-0.00852269
-0.00856662
-0.00861208
-0.00865878
-0.00870634
-0.00875474
-0.00880474
-0.00885701
-0.00891145
-0.00896719
-0.00902395
-0.00908245
-0.00914308
-0.00920561
-0.00926962
-0.00933493
-0.00940191
-0.00947078
-0.00954123
-0.00961313
-0.00968644
-0.00976115
-0.00983738
-0.00991511
-0.00999424
-0.0100748
-0.0101567
-0.01024
-0.0103245
-0.0104103
-0.0104974
-0.0105858
-0.0106755
-0.0107664
-0.0108583
-0.0109514
-0.0110458
-0.0111416
-0.0112387
-0.0113372
-0.0114367
-0.0115372
-0.0116387
-0.0117411
-0.0118445
-0.0119491
-0.0120548
-0.0121617
-0.0122698
-0.0123791
-0.0124894
-0.0126009
-0.0127135
-0.0128273
-0.0129421
-0.0130579
-0.0131749
-0.0132929
-0.013412
-0.0135322
-0.0136534
-0.0137757
-0.0138991
-0.0140236
-0.0141493
-0.0142762
-0.0144043
-0.0145336
-0.014664
-0.0147957
-0.0149285
-0.0150625
-0.0151977
-0.0153342
-0.0154719
-0.0156109
-0.0157511
-0.0158926
-0.0160354
-0.0161795
-0.0163248
-0.0164715
-0.0166195
-0.0167689
-0.0169196
-0.0170716
-0.0172251
-0.0173799
-0.0175362
-0.0176938
-0.0178529
-0.0180134
-0.0181754
-0.0183388
-0.0185037
-0.0186701
-0.0188381
-0.0190075
-0.0191785
-0.019351
-0.019525
-0.0197007
-0.0198779
-0.0200567
-0.0202372
-0.0204192
-0.020603
-0.0207884
-0.0209754
-0.0211642
-0.0213546
-0.0215468
-0.0217407
-0.0219364
-0.0221338
-0.0223332
-0.022534
-0.0227372
-0.0229415
-0.0231485
-0.0233563
-0.0235674
-0.0237786
-0.0239938
-0.0242087
-0.0244278
-0.0246468
-0.0248693
-0.0250933
-0.0253185
-0.0255481
-0.0257758
-0.0260107
-0.0262421
-0.0264806
-0.0267179
-0.026958
-0.0272025
-0.0274443
-0.0276939
-0.027941
-0.0281911
-0.0284464
-0.0286963
-0.0289551
-0.0292106
-0.0294627
-0.0297259
-0.0299639
-0.0302155
-0.0304252
-0.0305784
0.0111653
0.00744509
0.000416467
-0.00522132
-0.00729997
-0.00706896
-0.00636258
-0.0059077
-0.00572541
-0.00570468
-0.0057685
-0.00586158
-0.00594855
-0.00602491
-0.00610355
-0.00619057
-0.00628035
-0.00636608
-0.00644818
-0.00653347
-0.00662811
-0.00673061
-0.00683252
-0.00692655
-0.00701411
-0.00710317
-0.00719787
-0.00729321
-0.00738188
-0.00746357
-0.00754421
-0.00762698
-0.00770822
-0.00778306
-0.00785131
-0.00791612
-0.0079784
-0.00803591
-0.00808743
-0.00813491
-0.00818096
-0.00822608
-0.00826976
-0.00831242
-0.00835497
-0.00839722
-0.00843878
-0.00848016
-0.00852247
-0.00856642
-0.00861191
-0.00865863
-0.0087062
-0.00875462
-0.00880464
-0.00885692
-0.00891137
-0.00896712
-0.00902389
-0.0090824
-0.00914304
-0.00920558
-0.00926959
-0.0093349
-0.00940189
-0.00947076
-0.00954122
-0.00961312
-0.00968643
-0.00976115
-0.00983737
-0.0099151
-0.00999423
-0.0100748
-0.0101567
-0.0102399
-0.0103245
-0.0104103
-0.0104974
-0.0105858
-0.0106755
-0.0107664
-0.0108583
-0.0109514
-0.0110458
-0.0111416
-0.0112387
-0.0113372
-0.0114367
-0.0115372
-0.0116387
-0.0117411
-0.0118445
-0.0119491
-0.0120548
-0.0121617
-0.0122698
-0.0123791
-0.0124894
-0.0126009
-0.0127135
-0.0128273
-0.0129421
-0.0130579
-0.0131749
-0.0132929
-0.013412
-0.0135322
-0.0136534
-0.0137757
-0.0138991
-0.0140236
-0.0141493
-0.0142762
-0.0144043
-0.0145336
-0.014664
-0.0147957
-0.0149285
-0.0150625
-0.0151977
-0.0153342
-0.0154719
-0.0156109
-0.0157511
-0.0158926
-0.0160354
-0.0161795
-0.0163248
-0.0164715
-0.0166195
-0.0167689
-0.0169196
-0.0170716
-0.0172251
-0.0173799
-0.0175362
-0.0176938
-0.0178529
-0.0180134
-0.0181754
-0.0183388
-0.0185037
-0.0186701
-0.0188381
-0.0190075
-0.0191785
-0.019351
-0.019525
-0.0197007
-0.0198779
-0.0200567
-0.0202372
-0.0204192
-0.020603
-0.0207884
-0.0209754
-0.0211642
-0.0213546
-0.0215468
-0.0217407
-0.0219364
-0.0221338
-0.0223332
-0.022534
-0.0227372
-0.0229415
-0.0231485
-0.0233563
-0.0235674
-0.0237786
-0.0239938
-0.0242087
-0.0244278
-0.0246468
-0.0248693
-0.0250933
-0.0253185
-0.0255481
-0.0257758
-0.0260107
-0.0262421
-0.0264806
-0.0267179
-0.026958
-0.0272025
-0.0274443
-0.0276939
-0.027941
-0.0281911
-0.0284464
-0.0286963
-0.0289551
-0.0292106
-0.0294627
-0.0297259
-0.0299639
-0.0302155
-0.0304253
-0.0305783
0.0104688
0.00729857
0.000710707
-0.00485212
-0.00708452
-0.00698526
-0.00632154
-0.00587373
-0.00569604
-0.00568141
-0.00575021
-0.0058464
-0.00593546
-0.00601356
-0.00609358
-0.00618154
-0.00627203
-0.00635857
-0.00644163
-0.00652783
-0.00662313
-0.00672602
-0.0068282
-0.00692256
-0.00701052
-0.00709991
-0.00719478
-0.00729023
-0.00737904
-0.00746094
-0.00754178
-0.00762472
-0.00770613
-0.00778112
-0.00784953
-0.00791447
-0.00797686
-0.00803448
-0.00808613
-0.00813374
-0.00817992
-0.00822517
-0.00826895
-0.00831169
-0.00835431
-0.00839663
-0.00843826
-0.0084797
-0.00852207
-0.00856607
-0.00861159
-0.00865834
-0.00870595
-0.00875441
-0.00880446
-0.00885676
-0.00891123
-0.008967
-0.00902378
-0.00908231
-0.00914296
-0.00920551
-0.00926953
-0.00933485
-0.00940185
-0.00947072
-0.00954119
-0.00961309
-0.0096864
-0.00976113
-0.00983736
-0.00991509
-0.00999422
-0.0100747
-0.0101567
-0.0102399
-0.0103245
-0.0104103
-0.0104974
-0.0105858
-0.0106755
-0.0107664
-0.0108583
-0.0109514
-0.0110458
-0.0111416
-0.0112387
-0.0113372
-0.0114367
-0.0115372
-0.0116387
-0.0117411
-0.0118445
-0.0119491
-0.0120548
-0.0121617
-0.0122698
-0.0123791
-0.0124894
-0.0126009
-0.0127135
-0.0128273
-0.0129421
-0.0130579
-0.0131749
-0.0132929
-0.013412
-0.0135322
-0.0136534
-0.0137757
-0.0138991
-0.0140236
-0.0141493
-0.0142762
-0.0144043
-0.0145336