/*--------------------------------*- C++ -*----------------------------------*\
| =========                 |                                                 |
| \\      /  F ield         | OpenFOAM: The Open Source CFD Toolbox           |
|  \\    /   O peration     | Version:  v2012                                 |
|   \\  /    A nd           | Website:  www.openfoam.com                      |
|    \\/     M anipulation  |                                                 |
\*---------------------------------------------------------------------------*/
FoamFile
{
    version     2.0;
    format      ascii;
    class       surfaceScalarField;
    location    "0.25";
    object      phi;
}
// * * * * * * * * * * * * * * * * * * * * * * * * * * * * * * * * * * * * * //

dimensions      [0 3 -1 0 0 0 0];
oriented        oriented;


internalField   nonuniform List<scalar> 
34900
(
1.17595e-06
-1.23628e-08
1.16564e-06
-5.25632e-08
1.17181e-06
2.04857e-08
1.16582e-06
1.75767e-09
1.16846e-06
9.73405e-08
1.16403e-06
-1.74947e-08
1.16692e-06
6.20015e-08
1.16163e-06
-1.07258e-07
1.16525e-06
1.21873e-07
1.15684e-06
-1.55906e-07
1.16392e-06
2.76078e-07
1.14548e-06
-1.59196e-07
1.15789e-06
3.74718e-07
1.13189e-06
-9.90558e-08
1.14594e-06
3.15241e-07
1.11874e-06
-2.59584e-08
1.13237e-06
2.22112e-07
1.10452e-06
-3.53288e-10
1.11463e-06
1.44545e-07
2.0616e-08
1.06671e-06
1.23098e-06
-1.9078e-08
1.22212e-06
-4.37043e-08
1.22697e-06
1.56327e-08
1.22296e-06
5.76413e-09
1.22343e-06
9.68757e-08
1.22126e-06
-1.53217e-08
1.22146e-06
6.1798e-08
1.21832e-06
-1.04118e-07
1.2186e-06
1.21591e-07
1.21344e-06
-1.50742e-07
1.21482e-06
2.747e-07
1.20234e-06
-1.46717e-07
1.20462e-06
3.72438e-07
1.19071e-06
-8.51477e-08
1.18896e-06
3.16987e-07
1.18233e-06
-1.93279e-08
1.17309e-06
2.31356e-07
1.17484e-06
-2.10092e-09
1.15261e-06
1.6677e-07
2.07731e-08
1.15245e-06
1.28724e-06
-2.35318e-08
1.28249e-06
-3.89565e-08
1.28397e-06
1.41518e-08
1.28404e-06
5.69407e-09
1.28052e-06
1.00397e-07
1.28222e-06
-1.70231e-08
1.27848e-06
6.55382e-08
1.27905e-06
-1.04685e-07
1.27516e-06
1.25475e-07
1.27363e-06
-1.49208e-07
1.27047e-06
2.7786e-07
1.26306e-06
-1.39306e-07
1.26027e-06
3.7523e-07
1.25355e-06
-7.8427e-08
1.24776e-06
3.22769e-07
1.24661e-06
-1.81743e-08
1.23948e-06
2.38486e-07
1.23892e-06
-1.54487e-09
1.23078e-06
1.74911e-07
3.61106e-08
1.21545e-06
1.34539e-06
-2.48146e-08
1.34569e-06
-3.92643e-08
1.34315e-06
1.66982e-08
1.34742e-06
1.42059e-09
1.34041e-06
1.07412e-07
1.34535e-06
-2.19668e-08
1.33886e-06
7.20229e-08
1.34191e-06
-1.0773e-07
1.33626e-06
1.3112e-07
1.33609e-06
-1.49034e-07
1.33256e-06
2.81387e-07
1.3267e-06
-1.33441e-07
1.32496e-06
3.76969e-07
1.31929e-06
-7.27525e-08
1.31719e-06
3.24864e-07
1.31354e-06
-1.45225e-08
1.3135e-06
2.3852e-07
1.30714e-06
4.82055e-09
1.30723e-06
1.74821e-07
5.58368e-08
1.2875e-06
1.40647e-06
-2.29323e-08
1.41084e-06
-4.36307e-08
1.40519e-06
2.23491e-08
1.41189e-06
-5.28442e-09
1.4037e-06
1.15608e-07
1.40961e-06
-2.7882e-08
1.40315e-06
7.84868e-08
1.40622e-06
-1.10799e-07
1.40178e-06
1.35559e-07
1.40057e-06
-1.47825e-07
1.39919e-06
2.82767e-07
1.39273e-06
-1.26979e-07
1.39376e-06
3.75936e-07
1.38704e-06
-6.60333e-08
1.38878e-06
3.23125e-07
1.38255e-06
-8.29323e-09
1.38626e-06
2.34809e-07
1.37705e-06
1.40323e-08
1.38003e-06
1.71838e-07
7.59697e-08
1.3599e-06
1.47168e-06
-1.89313e-08
1.47783e-06
-4.9786e-08
1.47099e-06
2.91906e-08
1.47769e-06
-1.19899e-08
1.4708e-06
1.225e-07
1.47562e-06
-3.2705e-08
1.47116e-06
8.29516e-08
1.47281e-06
-1.12444e-07
1.47058e-06
1.37787e-07
1.46769e-06
-1.44938e-07
1.46823e-06
2.82228e-07
1.46095e-06
-1.19704e-07
1.46399e-06
3.72897e-07
1.45631e-06
-5.83445e-08
1.46059e-06
3.18838e-07
1.4528e-06
-4.97297e-10
1.45872e-06
2.28883e-07
1.44774e-06
2.50114e-08
1.45275e-06
1.66832e-07
9.59181e-08
1.4328e-06
1.54166e-06
-1.43779e-08
1.54739e-06
-5.55133e-08
1.54111e-06
3.54729e-08
1.54616e-06
-1.70371e-08
1.54173e-06
1.26926e-07
1.54471e-06
-3.56907e-08
1.54247e-06
8.51925e-08
1.54265e-06
-1.12615e-07
1.54203e-06
1.38403e-07
1.53788e-06
-1.40792e-07
1.53939e-06
2.80716e-07
1.53155e-06
-1.11858e-07
1.53594e-06
3.68505e-07
1.52754e-06
-4.99435e-08
1.53382e-06
3.12554e-07
1.52489e-06
8.4353e-09
1.5328e-06
2.20978e-07
1.52036e-06
3.74463e-08
1.52703e-06
1.60168e-07
1.1501e-07
1.50793e-06
1.6163e-06
-1.05494e-08
1.6204e-06
-5.96092e-08
1.61551e-06
4.03631e-08
1.61854e-06
-2.00721e-08
1.61634e-06
1.2913e-07
1.6178e-06
-3.71531e-08
1.617e-06
8.59973e-08
1.6162e-06
-1.1182e-07
1.61637e-06
1.38235e-07
1.61145e-06
-1.35877e-07
1.61346e-06
2.78706e-07
1.60516e-06
-1.03555e-07
1.61073e-06
3.62933e-07
1.60171e-06
-4.09254e-08
1.60986e-06
3.04413e-07
1.59991e-06
1.83775e-08
1.60969e-06
2.11205e-07
1.59608e-06
5.10526e-08
1.60383e-06
1.52417e-07
1.32501e-07
1.58634e-06
1.69498e-06
-7.95561e-09
1.69735e-06
-6.19808e-08
1.69384e-06
4.38792e-08
1.6954e-06
-2.16375e-08
1.69461e-06
1.29923e-07
1.69515e-06
-3.76914e-08
1.69496e-06
8.61867e-08
1.6936e-06
-1.10458e-07
1.69412e-06
1.37712e-07
1.68873e-06
-1.30491e-07
1.69124e-06
2.762e-07
1.68252e-06
-9.48398e-08
1.68933e-06
3.56125e-07
1.67968e-06
-3.12762e-08
1.68963e-06
2.9446e-07
1.6787e-06
2.93124e-08
1.69009e-06
1.99815e-07
1.67565e-06
6.54921e-08
1.68377e-06
1.44298e-07
1.47761e-07
1.66851e-06
1.7772e-06
-6.43444e-09
1.77836e-06
-6.31433e-08
1.77584e-06
4.64058e-08
1.77668e-06
-2.24846e-08
1.77663e-06
1.29976e-07
1.77667e-06
-3.77274e-08
1.77662e-06
8.62331e-08
1.77487e-06
-1.08703e-07
1.77565e-06
1.36924e-07
1.76997e-06
-1.24812e-07
1.77317e-06
2.73004e-07
1.76409e-06
-8.57625e-08
1.77227e-06
3.47952e-07
1.76191e-06
-2.09252e-08
1.77362e-06
2.82757e-07
1.76168e-06
4.12462e-08
1.77428e-06
1.87223e-07
1.75943e-06
8.03427e-08
1.76711e-06
1.36616e-07
1.6031e-07
1.75456e-06
1.86286e-06
-5.55015e-09
1.8634e-06
-6.36766e-08
1.86148e-06
4.83192e-08
1.86215e-06
-2.31522e-08
1.86249e-06
1.29636e-07
1.86222e-06
-3.7456e-08
1.86214e-06
8.63109e-08
1.86004e-06
-1.06603e-07
1.86114e-06
1.35823e-07
1.85528e-06
-1.18949e-07
1.85938e-06
2.68905e-07
1.84998e-06
-7.63604e-08
1.85964e-06
3.38288e-07
1.8485e-06
-9.78839e-09
1.86184e-06
2.69426e-07
1.84896e-06
5.41214e-08
1.8622e-06
1.73983e-07
1.84748e-06
9.50646e-08
1.85389e-06
1.30203e-07
1.69804e-07
1.8444e-06
1.95221e-06
-4.92095e-09
1.9525e-06
-6.39655e-08
1.95094e-06
4.9875e-08
1.95168e-06
-2.38905e-08
1.95228e-06
1.29034e-07
1.95178e-06
-3.69492e-08
1.95165e-06
8.64344e-08
1.94921e-06
-1.04158e-07
1.95069e-06
1.34342e-07
1.94467e-06
-1.12927e-07
1.94982e-06
2.63751e-07
1.94007e-06
-6.66128e-08
1.95129e-06
3.27067e-07
1.93931e-06
2.19258e-09
1.95406e-06
2.54683e-07
1.94043e-06
6.77488e-08
1.95368e-06
1.60733e-07
1.9397e-06
1.09039e-07
1.94414e-06
1.25772e-07
1.7609e-07
1.93785e-06
2.0456e-06
-4.3328e-09
2.04583e-06
-6.41933e-08
2.04447e-06
5.12336e-08
2.04533e-06
-2.47528e-08
2.04615e-06
1.28219e-07
2.04543e-06
-3.62344e-08
2.04532e-06
8.65443e-08
2.04251e-06
-1.01348e-07
2.04443e-06
1.32429e-07
2.03818e-06
-1.06677e-07
2.04445e-06
2.57479e-07
2.03426e-06
-5.64282e-08
2.04701e-06
3.14316e-07
2.03419e-06
1.50156e-08
2.05003e-06
2.38844e-07
2.036e-06
8.17771e-08
2.04858e-06
1.48154e-07
2.036e-06
1.21621e-07
2.038e-06
1.23771e-07
1.79276e-07
2.03481e-06
2.14338e-06
-3.70822e-09
2.14361e-06
-6.44253e-08
2.14235e-06
5.24968e-08
2.14329e-06
-2.57001e-08
2.1443e-06
1.27212e-07
2.14338e-06
-3.53193e-08
2.14338e-06
8.65496e-08
2.14017e-06
-9.81377e-08
2.14256e-06
1.30041e-07
2.13594e-06
-1.00056e-07
2.14332e-06
2.50093e-07
2.13257e-06
-4.56742e-08
2.14672e-06
3.00164e-07
2.13315e-06
2.85874e-08
2.14966e-06
2.22332e-07
2.13573e-06
9.57101e-08
2.14697e-06
1.36915e-07
2.13636e-06
1.32231e-07
2.13583e-06
1.24295e-07
1.79774e-07
2.13533e-06
2.24582e-06
-3.03957e-09
2.24607e-06
-6.46735e-08
2.24484e-06
5.37219e-08
2.24581e-06
-2.66635e-08
2.247e-06
1.26015e-07
2.24588e-06
-3.41928e-08
2.24608e-06
8.63467e-08
2.24241e-06
-9.44703e-08
2.24533e-06
1.27126e-07
2.23817e-06
-9.28989e-08
2.24663e-06
2.41637e-07
2.23519e-06
-3.42356e-08
2.25052e-06
2.84827e-07
2.23641e-06
4.27031e-08
2.25308e-06
2.05658e-07
2.23982e-06
1.08976e-07
2.24913e-06
1.27605e-07
2.24089e-06
1.40465e-07
2.23807e-06
1.27115e-07
1.78225e-07
2.23962e-06
2.35318e-06
-2.34296e-09
2.35343e-06
-6.49238e-08
2.35223e-06
5.49251e-08
2.35313e-06
-2.75678e-08
2.35454e-06
1.24601e-07
2.35317e-06
-3.28198e-08
2.35369e-06
8.58285e-08
2.34949e-06
-9.02746e-08
2.353e-06
1.23624e-07
2.34515e-06
-8.50578e-08
2.35462e-06
2.32174e-07
2.34245e-06
-2.20718e-08
2.35868e-06
2.686e-07
2.34434e-06
5.70426e-08
2.36061e-06
1.89392e-07
2.34858e-06
1.21007e-07
2.35551e-06
1.20671e-07
2.34982e-06
1.46151e-07
2.34519e-06
1.31749e-07
1.75381e-07
2.34803e-06
2.46569e-06
-1.63874e-09
2.46591e-06
-6.51434e-08
2.46475e-06
5.60841e-08
2.46552e-06
-2.83347e-08
2.46721e-06
1.22913e-07
2.46553e-06
-3.11403e-08
2.46647e-06
8.48885e-08
2.46166e-06
-8.54702e-08
2.46581e-06
1.19473e-07
2.4572e-06
-7.64399e-08
2.46758e-06
2.21793e-07
2.45476e-06
-9.25601e-09
2.47151e-06
2.51849e-07
2.45737e-06
7.11877e-08
2.47264e-06
1.74117e-07
2.46233e-06
1.3132e-07
2.46666e-06
1.16339e-07
2.46338e-06
1.49432e-07
2.45762e-06
1.37508e-07
1.72011e-07
2.46099e-06
2.5836e-06
-9.46996e-10
2.58374e-06
-6.52821e-08
2.58268e-06
5.71441e-08
2.58323e-06
-2.88789e-08
2.58527e-06
1.2087e-07
2.5832e-06
-2.90735e-08
2.58467e-06
8.34245e-08
2.57917e-06
-7.99786e-08
2.58402e-06
1.14624e-07
2.57461e-06
-6.70227e-08
2.58577e-06
2.1063e-07
2.5725e-06
4.01276e-09
2.58934e-06
2.35004e-07
2.57586e-06
8.46717e-08
2.5896e-06
1.60377e-07
2.58135e-06
1.39575e-07
2.58312e-06
1.14566e-07
2.58181e-06
1.50738e-07
2.57572e-06
1.43607e-07
1.68794e-07
2.57893e-06
2.70717e-06
-2.87854e-10
2.70716e-06
-6.52745e-08
2.70628e-06
5.80228e-08
2.70651e-06
-2.91042e-08
2.70901e-06
1.18368e-07
2.70646e-06
-2.65262e-08
2.70854e-06
8.13444e-08
2.7023e-06
-7.37388e-08
2.70786e-06
1.09066e-07
2.6977e-06
-5.68656e-08
2.70945e-06
1.98884e-07
2.69602e-06
1.74377e-08
2.71251e-06
2.18519e-07
2.70014e-06
9.70459e-08
2.71191e-06
1.48602e-07
2.70586e-06
1.45628e-07
2.70534e-06
1.15084e-07
2.70546e-06
1.50618e-07
2.69972e-06
1.49347e-07
1.66191e-07
2.70232e-06
2.83666e-06
3.17517e-10
2.83643e-06
-6.5041e-08
2.83584e-06
5.86158e-08
2.83564e-06
-2.89039e-08
2.83871e-06
1.15296e-07
2.83559e-06
-2.3405e-08
2.83835e-06
7.85767e-08
2.83134e-06
-6.67251e-08
2.83756e-06
1.02848e-07
2.82682e-06
-4.61217e-08
2.83886e-06
1.86835e-07
2.82566e-06
3.06429e-08
2.84133e-06
2.02848e-07
2.83044e-06
1.07937e-07
2.83998e-06
1.39056e-07
2.83604e-06
1.4957e-07
2.83369e-06
1.17435e-07
2.83466e-06
1.49647e-07
2.82981e-06
1.54202e-07
1.64403e-07
2.8316e-06
2.97237e-06
8.46735e-10
2.97182e-06
-6.44916e-08
2.97163e-06
5.88026e-08
2.97089e-06
-2.81668e-08
2.97464e-06
1.11546e-07
2.97087e-06
-1.96316e-08
2.97436e-06
7.50847e-08
2.9666e-06
-5.89674e-08
2.97336e-06
9.60949e-08
2.96227e-06
-3.50387e-08
2.97427e-06
1.74837e-07
2.9617e-06
4.32124e-08
2.97614e-06
1.88416e-07
2.96698e-06
1.17093e-07
2.97422e-06
1.31812e-07
2.9721e-06
1.5169e-07
2.96847e-06
1.21066e-07
2.9698e-06
1.48322e-07
2.96614e-06
1.57858e-07
1.63392e-07
2.96715e-06
3.11458e-06
1.27672e-09
3.11361e-06
-6.35289e-08
3.11396e-06
5.84536e-08
3.11258e-06
-2.6786e-08
3.1171e-06
1.07029e-07
3.11263e-06
-1.51631e-08
3.11683e-06
7.08891e-08
3.10843e-06
-5.05738e-08
3.11551e-06
8.90202e-08
3.10441e-06
-2.39424e-08
3.11597e-06
1.63277e-07
3.10442e-06
5.47603e-08
3.11728e-06
1.75554e-07
3.10996e-06
1.24421e-07
3.11503e-06
1.26739e-07
3.11431e-06
1.52404e-07
3.10994e-06
1.25445e-07
3.11125e-06
1.47008e-07
3.1089e-06
1.60205e-07
1.6295e-07
3.10935e-06
3.2636e-06
1.58495e-09
3.26213e-06
-6.2055e-08
3.26314e-06
5.74413e-08
3.26103e-06
-2.46716e-08
3.26636e-06
1.01693e-07
3.26121e-06
-1.00114e-08
3.26602e-06
6.60843e-08
3.25718e-06
-4.17415e-08
3.26428e-06
8.1921e-08
3.25354e-06
-1.32021e-08
3.2643e-06
1.52522e-07
3.25406e-06
6.49992e-08
3.26517e-06
1.64446e-07
3.25958e-06
1.30006e-07
3.26275e-06
1.23572e-07
3.263e-06
1.52149e-07
3.25834e-06
1.30104e-07
3.25941e-06
1.45937e-07
3.25832e-06
1.613e-07
1.62786e-07
3.25848e-06
3.41977e-06
1.751e-09
3.41769e-06
-5.99801e-08
3.41948e-06
5.56547e-08
3.41657e-06
-2.17652e-08
3.42273e-06
9.55358e-08
3.41698e-06
-4.26055e-09
3.42221e-06
6.08512e-08
3.41322e-06
-3.27529e-08
3.41999e-06
7.51521e-08
3.40998e-06
-3.19287e-09
3.41963e-06
1.42875e-07
3.41083e-06
7.37922e-08
3.42019e-06
1.55092e-07
3.4161e-06
1.34097e-07
3.41771e-06
1.21956e-07
3.41856e-06
1.51307e-07
3.41397e-06
1.34687e-07
3.41467e-06
1.45239e-07
3.41467e-06
1.61297e-07
1.62605e-07
3.41486e-06
3.5834e-06
1.75817e-09
3.58065e-06
-5.72298e-08
3.58329e-06
5.30135e-08
3.57959e-06
-1.80568e-08
3.5865e-06
8.86266e-08
3.58031e-06
1.92075e-09
3.58571e-06
5.54574e-08
3.57691e-06
-2.39555e-08
3.58298e-06
6.90783e-08
3.57402e-06
5.77664e-09
3.58238e-06
1.34514e-07
3.575e-06
8.11704e-08
3.58276e-06
1.47334e-07
3.57982e-06
1.37034e-07
3.58025e-06
1.21525e-07
3.58138e-06
1.50174e-07
3.57713e-06
1.38935e-07
3.57741e-06
1.44965e-07
3.57831e-06
1.60397e-07
1.62159e-07
3.57875e-06
3.75487e-06
1.59571e-09
3.75139e-06
-5.37519e-08
3.75492e-06
4.94821e-08
3.75047e-06
-1.36031e-08
3.75797e-06
8.11201e-08
3.75163e-06
8.26669e-09
3.75683e-06
5.02527e-08
3.74861e-06
-1.57333e-08
3.75366e-06
6.4026e-08
3.7459e-06
1.35425e-08
3.75301e-06
1.27404e-07
3.74682e-06
8.73564e-08
3.75323e-06
1.4092e-07
3.75113e-06
1.39143e-07
3.75066e-06
1.21986e-07
3.75191e-06
1.48929e-07
3.74816e-06
1.4268e-07
3.74802e-06
1.45111e-07
3.7496e-06
1.58817e-07
1.61262e-07
3.7505e-06
3.93452e-06
1.26163e-09
3.9303e-06
-4.95266e-08
3.93469e-06
4.50871e-08
3.92963e-06
-8.54377e-09
3.9375e-06
7.3257e-08
3.93132e-06
1.44375e-08
3.93595e-06
4.56242e-08
3.92865e-06
-8.4327e-09
3.93249e-06
6.01902e-08
3.9259e-06
2.01309e-08
3.93194e-06
1.2136e-07
3.92667e-06
9.26316e-08
3.93196e-06
1.3563e-07
3.93045e-06
1.40651e-07
3.92928e-06
1.23159e-07
3.93057e-06
1.4764e-07
3.92742e-06
1.45825e-07
3.92693e-06
1.45603e-07
3.92896e-06
1.5679e-07
1.59794e-07
3.93043e-06
4.12275e-06
7.64711e-10
4.1178e-06
-4.45748e-08
4.12295e-06
3.99307e-08
4.11752e-06
-3.11108e-09
4.12541e-06
6.53681e-08
4.11981e-06
2.00384e-08
4.12349e-06
4.19407e-08
4.11734e-06
-2.27843e-09
4.11996e-06
5.75645e-08
4.11434e-06
2.57576e-08
4.1196e-06
1.16094e-07
4.11497e-06
9.72616e-08
4.11926e-06
1.31338e-07
4.11825e-06
1.41661e-07
4.11647e-06
1.24946e-07
4.11778e-06
1.46325e-07
4.1153e-06
1.48302e-07
4.11459e-06
1.46318e-07
4.11682e-06
1.54554e-07
1.57707e-07
4.11891e-06
4.31994e-06
1.26881e-10
4.31433e-06
-3.89666e-08
4.32006e-06
3.42033e-08
4.31459e-06
2.36254e-09
4.32209e-06
5.78598e-08
4.31746e-06
2.4669e-08
4.31993e-06
3.94784e-08
4.31495e-06
2.6936e-09
4.31658e-06
5.59407e-08
4.31157e-06
3.07619e-08
4.31633e-06
1.11335e-07
4.31219e-06
1.01404e-07
4.31553e-06
1.28e-07
4.31497e-06
1.42217e-07
4.31267e-06
1.27244e-07
4.31395e-06
1.45052e-07
4.31222e-06
1.50028e-07
4.31144e-06
1.47104e-07
4.31368e-06
1.52307e-07
1.55047e-07
4.31634e-06
4.52652e-06
-6.15038e-10
4.52038e-06
-3.28282e-08
4.52639e-06
2.81884e-08
4.5213e-06
7.45782e-09
4.52799e-06
5.11701e-08
4.52465e-06
2.80016e-08
4.52578e-06
3.83503e-08
4.52183e-06
6.64322e-09
4.52282e-06
5.49508e-08
4.51807e-06
3.55117e-08
4.52247e-06
1.06938e-07
4.51881e-06
1.05064e-07
4.52118e-06
1.25628e-07
4.52106e-06
1.4234e-07
4.51838e-06
1.29922e-07
4.51951e-06
1.43925e-07
4.5186e-06
1.50934e-07
4.51791e-06
1.47794e-07
4.52005e-06
1.50172e-07
1.51939e-07
4.52315e-06
4.74291e-06
-1.40792e-09
4.73643e-06
-2.635e-08
4.74235e-06
2.22667e-08
4.73812e-06
1.16934e-08
4.74358e-06
4.57063e-08
4.74172e-06
2.98601e-08
4.74162e-06
3.8455e-08
4.73833e-06
9.92776e-09
4.73913e-06
5.415e-08
4.73438e-06
4.02692e-08
4.73835e-06
1.02961e-07
4.73531e-06
1.08108e-07
4.73671e-06
1.24227e-07
4.73694e-06
1.4211e-07
4.73412e-06
1.32742e-07
4.73496e-06
1.43087e-07
4.73487e-06
1.51019e-07
4.73445e-06
1.48219e-07
4.73644e-06
1.48179e-07
1.4855e-07
4.73983e-06
4.96957e-06
-2.18116e-09
4.963e-06
-1.97837e-08
4.96838e-06
1.68927e-08
4.9655e-06
1.45734e-08
4.96941e-06
4.17983e-08
4.96903e-06
3.02413e-08
4.96802e-06
3.94573e-08
4.96488e-06
1.30757e-08
4.96589e-06
5.31318e-08
4.96107e-06
4.50885e-08
4.96442e-06
9.96107e-08
4.9621e-06
1.10435e-07
4.96265e-06
1.23672e-07
4.96308e-06
1.4168e-07
4.96039e-06
1.35429e-07
4.96085e-06
1.42631e-07
4.96147e-06
1.50399e-07
4.96149e-06
1.48196e-07
4.96338e-06
1.46288e-07
1.45036e-07
4.9669e-06
5.20698e-06
-2.84849e-09
5.20063e-06
-1.34329e-08
5.20497e-06
1.25512e-08
5.20388e-06
1.56685e-08
5.20607e-06
3.9612e-08
5.20693e-06
2.93799e-08
5.20557e-06
4.08162e-08
5.20205e-06
1.65975e-08
5.20341e-06
5.17707e-08
5.19878e-06
4.97169e-08
5.20122e-06
9.71734e-08
5.19957e-06
1.12079e-07
5.19955e-06
1.23695e-07
5.20004e-06
1.41191e-07
5.19768e-06
1.3779e-07
5.19779e-06
1.4252e-07
5.19888e-06
1.49309e-07
5.1995e-06
1.47576e-07
5.20139e-06
1.444e-07
1.41519e-07
5.2049e-06
5.45565e-06
-3.30995e-09
5.44986e-06
-7.64639e-09
5.4527e-06
9.71626e-09
5.45366e-06
1.47084e-08
5.45424e-06
3.90327e-08
5.45581e-06
2.78091e-08
5.45475e-06
4.18771e-08
5.45049e-06
2.08567e-08
5.45205e-06
5.02131e-08
5.44799e-06
5.37705e-08
5.44937e-06
9.57991e-08
5.44817e-06
1.13281e-07
5.44787e-06
1.23986e-07
5.4484e-06
1.40661e-07
5.44645e-06
1.39744e-07
5.44635e-06
1.42617e-07
5.44767e-06
1.47995e-07
5.44892e-06
1.46327e-07
5.45095e-06
1.42365e-07
1.38077e-07
5.45439e-06
5.71611e-06
-3.4585e-09
5.71126e-06
-2.79849e-09
5.71218e-06
8.79851e-09
5.71522e-06
1.16638e-08
5.71462e-06
3.96309e-08
5.71617e-06
2.62603e-08
5.716e-06
4.20462e-08
5.71092e-06
2.59416e-08
5.71226e-06
4.88717e-08
5.70918e-06
5.68535e-08
5.70954e-06
9.54325e-08
5.70849e-06
1.14333e-07
5.7081e-06
1.24377e-07
5.70873e-06
1.40025e-07
5.70728e-06
1.41201e-07
5.70711e-06
1.42788e-07
5.70849e-06
1.4661e-07
5.71023e-06
1.44587e-07
5.71257e-06
1.40029e-07
1.34704e-07
5.71594e-06
5.98892e-06
-3.1866e-09
5.98538e-06
7.44365e-10
5.9841e-06
1.00801e-08
5.98896e-06
6.79724e-09
5.98787e-06
4.07194e-08
5.98866e-06
2.54742e-08
5.98968e-06
4.10238e-08
5.98408e-06
3.1543e-08
5.98461e-06
4.83385e-08
5.98271e-06
5.87544e-08
5.98248e-06
9.56671e-08
5.98121e-06
1.15605e-07
5.98073e-06
1.24855e-07
5.98159e-06
1.39161e-07
5.98071e-06
1.42086e-07
5.98061e-06
1.42885e-07
5.98203e-06
1.4519e-07
5.98405e-06
1.42572e-07
5.98672e-06
1.37353e-07
1.31309e-07
5.99012e-06
6.2747e-06
-2.39732e-09
6.27279e-06
2.65579e-09
6.2692e-06
1.3664e-08
6.27529e-06
7.08731e-10
6.27463e-06
4.13802e-08
6.27399e-06
2.61162e-08
6.27619e-06
3.88277e-08
6.27064e-06
3.70922e-08
6.26982e-06
4.91498e-08
6.26898e-06
5.95991e-08
6.26876e-06
9.58871e-08
6.26709e-06
1.17274e-07
6.2664e-06
1.25545e-07
6.26751e-06
1.38051e-07
6.2673e-06
1.42293e-07
6.26742e-06
1.42765e-07
6.2689e-06
1.43709e-07
6.27104e-06
1.40434e-07
6.27394e-06
1.34459e-07
1.27801e-07
6.27744e-06
6.57408e-06
-1.01191e-09
6.57403e-06
2.71185e-09
6.56828e-06
1.94138e-08
6.5747e-06
-5.71373e-09
6.57548e-06
4.05968e-08
6.57297e-06
2.86349e-08
6.57594e-06
3.58525e-08
6.57121e-06
4.18243e-08
6.56877e-06
5.15844e-08
6.56841e-06
5.99582e-08
6.56889e-06
9.54079e-08
6.56691e-06
1.19259e-07
6.56584e-06
1.2661e-07
6.56707e-06
1.36822e-07
6.56765e-06
1.41716e-07
6.56813e-06
1.42282e-07
6.56973e-06
1.42115e-07
6.57194e-06
1.38225e-07
6.57487e-06
1.31526e-07
1.24206e-07
6.57846e-06
6.88777e-06
1.01318e-09
6.88964e-06
8.33064e-10
6.8821e-06
2.6956e-08
6.88781e-06
-1.14187e-08
6.89094e-06
3.74674e-08
6.88646e-06
3.31085e-08
6.8895e-06
3.28168e-08
6.88632e-06
4.50025e-08
6.88239e-06
5.55192e-08
6.88176e-06
6.05802e-08
6.88317e-06
9.40056e-08
6.88147e-06
1.20956e-07
6.87984e-06
1.28235e-07
6.88096e-06
1.35703e-07
6.88229e-06
1.40392e-07
6.88334e-06
1.41233e-07
6.88511e-06
1.40338e-07
6.8874e-06
1.35941e-07
6.89025e-06
1.28674e-07
1.2065e-07
6.89381e-06
7.21647e-06
3.67906e-09
7.22019e-06
-2.88319e-09
7.21149e-06
3.56538e-08
7.21536e-06
-1.52882e-08
7.22138e-06
3.14414e-08
7.21545e-06
3.90454e-08
7.2175e-06
3.07649e-08
7.21634e-06
4.61644e-08
7.21153e-06
6.03267e-08
7.20988e-06
6.22272e-08
7.21209e-06
9.18017e-08
7.21131e-06
1.21731e-07
7.20929e-06
1.30258e-07
7.21e-06
1.34987e-07
7.21184e-06
1.3856e-07
7.21363e-06
1.39438e-07
7.2157e-06
1.38267e-07
7.21808e-06
1.33567e-07
7.22081e-06
1.25937e-07
1.17263e-07
7.2242e-06
7.56097e-06
6.93602e-09
7.56625e-06
-8.167e-09
7.55724e-06
4.46684e-08
7.55823e-06
-1.62792e-08
7.56717e-06
2.24956e-08
7.56089e-06
4.53266e-08
7.56081e-06
3.08517e-08
7.56166e-06
4.53098e-08
7.55692e-06
6.50713e-08
7.55383e-06
6.53175e-08
7.55623e-06
8.93941e-08
7.55692e-06
1.21049e-07
7.55496e-06
1.32214e-07
7.55508e-06
1.34863e-07
7.55708e-06
1.36561e-07
7.55958e-06
1.36939e-07
7.56214e-06
1.35711e-07
7.56465e-06
1.31055e-07
7.5673e-06
1.23282e-07
1.14124e-07
7.57044e-06
7.92208e-06
1.06718e-08
7.92849e-06
-1.45848e-08
7.92008e-06
5.30827e-08
7.91745e-06
-1.36503e-08
7.92879e-06
1.11601e-08
7.92357e-06
5.05383e-08
7.92047e-06
3.39584e-08
7.92276e-06
4.30154e-08
7.91928e-06
6.85525e-08
7.91462e-06
6.99828e-08
7.91648e-06
8.75338e-08
7.91874e-06
1.18786e-07
7.9175e-06
1.33453e-07
7.9171e-06
1.35263e-07
7.91893e-06
1.34731e-07
7.92186e-06
1.34008e-07
7.92504e-06
1.32531e-07
7.92784e-06
1.28254e-07
7.93046e-06
1.20658e-07
1.11252e-07
7.93334e-06
8.30063e-06
1.47232e-08
8.30761e-06
-2.15692e-08
8.30074e-06
5.99558e-08
8.29416e-06
-7.07156e-09
8.30672e-06
-1.40221e-09
8.30412e-06
5.31468e-08
8.29773e-06
4.0344e-08
8.30028e-06
4.04626e-08
8.29909e-06
6.97447e-08
8.29331e-06
7.57684e-08
8.29388e-06
8.69622e-08
8.29735e-06
1.15317e-07
8.29747e-06
1.33329e-07
8.2969e-06
1.35834e-07
8.29834e-06
1.33292e-07
8.30136e-06
1.30984e-07
8.30502e-06
1.28874e-07
8.30833e-06
1.2494e-07
8.31103e-06
1.17959e-07
1.08619e-07
8.31367e-06
8.69752e-06
1.88674e-08
8.70438e-06
-2.8431e-08
8.69993e-06
6.44068e-08
8.68953e-06
3.32466e-09
8.70174e-06
-1.36119e-08
8.70293e-06
5.19614e-08
8.69389e-06
4.93832e-08
8.69522e-06
3.91323e-08
8.69652e-06
6.84395e-08
8.69088e-06
8.14082e-08
8.68965e-06
8.82e-08
8.69351e-06
1.11452e-07
8.69538e-06
1.31459e-07
8.69521e-06
1.36007e-07
8.69624e-06
1.32264e-07
8.69908e-06
1.28141e-07
8.7029e-06
1.25057e-07
8.70676e-06
1.21079e-07
8.70977e-06
1.14951e-07
1.06132e-07
8.71225e-06
9.11364e-06
2.28489e-08
9.11963e-06
-3.44224e-08
9.11838e-06
6.56551e-08
9.10456e-06
1.71462e-08
9.11485e-06
-2.39026e-08
9.12043e-06
4.63794e-08
9.11014e-06
5.96705e-08
9.10869e-06
4.05898e-08
9.11214e-06
6.49868e-08
9.10804e-06
8.55072e-08
9.10503e-06
9.12064e-08
9.10831e-06
1.0818e-07
9.11179e-06
1.27975e-07
9.11272e-06
1.35074e-07
9.11352e-06
1.31471e-07
9.116e-06
1.25654e-07
9.11971e-06
1.21355e-07
9.12383e-06
1.1696e-07
9.12733e-06
1.11448e-07
1.03569e-07
9.12989e-06
9.54992e-06
2.63864e-08
9.55433e-06
-3.88331e-08
9.55663e-06
6.33538e-08
9.54047e-06
3.33129e-08
9.54721e-06
-3.06443e-08
9.55707e-06
3.65213e-08
9.5474e-06
6.93414e-08
9.54218e-06
4.58038e-08
9.54666e-06
6.05052e-08
9.54525e-06
8.69212e-08
9.54122e-06
9.52324e-08
9.54305e-06
1.06358e-07
9.54749e-06
1.2353e-07
9.55e-06
1.32565e-07
9.55102e-06
1.30445e-07
9.55312e-06
1.23557e-07
9.55652e-06
1.17962e-07
9.56056e-06
1.12912e-07
9.56446e-06
1.07553e-07
1.00639e-07
9.56739e-06
1.00073e-05
2.92025e-08
1.00095e-05
-4.10286e-08
1.00154e-05
5.74738e-08
9.9983e-06
5.04112e-08
1.00002e-05
-3.251e-08
1.00134e-05
2.32333e-08
1.00063e-05
7.6471e-08
9.99732e-06
5.48067e-08
1.00011e-05
5.66863e-08
1.00029e-05
8.51683e-08
9.99916e-06
9.89607e-08
9.99917e-06
1.06346e-07
1.00036e-05
1.19113e-07
1.00076e-05
1.28529e-07
1.00096e-05
1.28519e-07
1.00114e-05
1.21736e-07
1.00144e-05
1.14957e-07
1.00181e-05
1.09158e-07
1.00221e-05
1.03593e-07
9.72534e-08
1.00255e-05
1.04868e-05
3.10553e-08
1.04863e-05
-4.05623e-08
1.04954e-05
4.84131e-08
1.0479e-05
6.68032e-08
1.04752e-05
-2.87153e-08
1.04904e-05
7.98325e-09
1.04874e-05
7.94914e-08
1.04756e-05
6.66764e-08
1.04769e-05
5.52963e-08
1.04815e-05
8.06001e-08
1.04795e-05
1.00945e-07
1.04781e-05
1.07817e-07
1.04815e-05
1.15708e-07
1.04865e-05
1.23539e-07
1.04898e-05
1.2519e-07
1.04917e-05
1.19813e-07
1.04943e-05
1.12334e-07
1.04977e-05
1.05834e-07
1.05014e-05
9.98106e-08
9.36761e-08
1.0505e-05
1.09893e-05
3.17738e-08
1.0986e-05
-3.7258e-08
1.09974e-05
3.69639e-08
1.09834e-05
8.08368e-08
1.09739e-05
-1.92085e-08
1.09891e-05
-7.17651e-09
1.09912e-05
7.7395e-08
1.09781e-05
7.97252e-08
1.09758e-05
5.76224e-08
1.0982e-05
7.44165e-08
1.09829e-05
1.00059e-07
1.09808e-05
1.09857e-07
1.09826e-05
1.13894e-07
1.09877e-05
1.18492e-07
1.09924e-05
1.20501e-07
1.0995e-05
1.17136e-07
1.09974e-05
1.09999e-07
1.10003e-05
1.02951e-07
1.10037e-05
9.64119e-08
9.0196e-08
1.10071e-05
1.15159e-05
3.12695e-08
1.15098e-05
-3.1186e-08
1.15226e-05
2.41592e-08
1.15124e-05
9.10712e-08
1.14979e-05
-4.70854e-09
1.15106e-05
-1.98678e-08
1.1518e-05
6.99238e-08
1.15059e-05
9.18068e-08
1.14995e-05
6.41038e-08
1.15055e-05
6.84133e-08
1.15096e-05
9.59032e-08
1.15083e-05
1.1116e-07
1.15086e-05
1.13586e-07
1.15128e-05
1.14362e-07
1.15182e-05
1.15018e-07
1.15222e-05
1.13203e-07
1.15246e-05
1.0759e-07
1.15271e-05
1.00454e-07
1.15299e-05
9.35578e-08
8.70321e-08
1.15331e-05
1.20675e-05
2.9567e-08
1.20591e-05
-2.27182e-08
1.2072e-05
1.12154e-08
1.20666e-05
9.64403e-08
1.20483e-05
1.35794e-08
1.20567e-05
-2.81927e-08
1.20688e-05
5.78269e-08
1.20598e-05
1.00802e-07
1.20497e-05
7.41905e-08
1.20536e-05
6.45053e-08
1.20605e-05
8.89814e-08
1.20613e-05
1.10334e-07
1.20607e-05
1.14214e-07
1.20633e-05
1.11752e-07
1.20687e-05
1.09594e-07
1.20739e-05
1.08096e-07
1.2077e-05
1.04454e-07
1.20792e-05
9.82196e-08
1.20816e-05
9.11949e-08
8.4375e-08
1.20842e-05
1.26454e-05
2.6797e-08
1.26352e-05
-1.25119e-08
1.2647e-05
-5.92244e-10
1.26468e-05
9.65692e-08
1.26267e-05
3.37383e-08
1.26292e-05
-3.07005e-08
1.26444e-05
4.25666e-08
1.26401e-05
1.05129e-07
1.26279e-05
8.64554e-08
1.26282e-05
6.41465e-08
1.26366e-05
8.05973e-08
1.26405e-05
1.06454e-07
1.26399e-05
1.14785e-07
1.2641e-05
1.1065e-07
1.26455e-05
1.05143e-07
1.26512e-05
1.02396e-07
1.26554e-05
1.00161e-07
1.26579e-05
9.57834e-08
1.26598e-05
8.92422e-08
8.21703e-08
1.2662e-05
1.32505e-05
2.31852e-08
1.32395e-05
-1.43147e-09
1.32489e-05
-1.00621e-08
1.32538e-05
9.16934e-08
1.3234e-05
5.35961e-08
1.32301e-05
-2.68415e-08
1.32463e-05
2.63912e-08
1.32476e-05
1.0377e-07
1.32351e-05
9.90059e-08
1.32314e-05
6.785e-08
1.32394e-05
7.257e-08
1.32463e-05
9.95481e-08
1.32472e-05
1.1393e-07
1.32472e-05
1.10632e-07
1.32501e-05
1.0223e-07
1.32556e-05
9.68993e-08
1.32608e-05
9.49079e-08
1.32642e-05
9.24697e-08
1.3266e-05
8.74227e-08
8.0292e-08
1.32679e-05
1.38843e-05
1.90307e-08
1.38733e-05
9.59715e-09
1.38795e-05
-1.63055e-08
1.38886e-05
8.26116e-08
1.38711e-05
7.10906e-08
1.38612e-05
-1.69479e-08
1.3876e-05
1.1632e-08
1.38829e-05
9.68879e-08
1.38723e-05
1.09563e-07
1.3865e-05
7.52042e-08
1.38708e-05
6.67357e-08
1.38799e-05
9.04852e-08
1.38832e-05
1.1054e-07
1.3883e-05
1.10861e-07
1.38844e-05
1.00863e-07
1.38889e-05
9.23886e-08
1.38945e-05
8.93234e-08
1.38989e-05
8.8005e-08
1.39013e-05
8.50796e-08
7.8683e-08
1.39029e-05
1.4548e-05
1.46885e-08
1.45379e-05
1.96589e-08
1.45404e-05
-1.87981e-08
1.45525e-05
7.05359e-08
1.45391e-05
8.45372e-08
1.45243e-05
-2.21596e-09
1.45355e-05
4.67788e-10
1.45469e-05
8.55243e-08
1.45403e-05
1.16115e-07
1.45305e-05
8.5023e-08
1.45328e-05
6.44026e-08
1.45427e-05
8.06374e-08
1.45489e-05
1.04324e-07
1.45496e-05
1.10132e-07
1.45498e-05
1.00659e-07
1.45529e-05
8.93495e-08
1.45581e-05
8.40673e-08
1.45633e-05
8.27867e-08
1.45668e-05
8.16497e-08
7.69772e-08
1.45685e-05
1.52431e-05
1.05184e-08
1.52347e-05
2.79735e-08
1.52334e-05
-1.74333e-08
1.5247e-05
5.69052e-08
1.52387e-05
9.2855e-08
1.5221e-05
1.55079e-08
1.52269e-05
-5.44055e-09
1.52411e-05
7.13026e-08
1.52397e-05
1.17487e-07
1.52292e-05
9.5514e-08
1.52277e-05
6.59396e-08
1.52367e-05
7.16777e-08
1.52451e-05
9.58242e-08
1.52479e-05
1.07353e-07
1.52477e-05
1.00871e-07
1.52493e-05
8.77841e-08
1.52536e-05
7.97511e-08
1.5259e-05
7.74151e-08
1.52634e-05
7.71814e-08
7.45869e-08
1.52658e-05
1.5971e-05
6.82919e-09
1.59649e-05
3.40673e-08
1.59602e-05
-1.26998e-08
1.59738e-05
4.334e-08
1.59709e-05
9.57605e-08
1.59524e-05
3.39257e-08
1.59524e-05
-5.40362e-09
1.59674e-05
5.62896e-08
1.59713e-05
1.13607e-07
1.59622e-05
1.04609e-07
1.59574e-05
7.07732e-08
1.59639e-05
6.51639e-08
1.59736e-05
8.60617e-08
1.59789e-05
1.02112e-07
1.59793e-05
1.0044e-07
1.59798e-05
8.73315e-08
1.59828e-05
7.67363e-08
1.59877e-05
7.2455e-08
1.59927e-05
7.21928e-08
7.11985e-08
1.59961e-05
1.67336e-05
3.85344e-09
1.67299e-05
3.77402e-08
1.67227e-05
-5.4759e-09
1.67346e-05
3.13822e-08
1.67369e-05
9.3527e-08
1.67198e-05
5.10426e-08
1.67142e-05
1.2251e-10
1.67279e-05
4.26176e-08
1.67362e-05
1.05289e-07
1.67304e-05
1.10467e-07
1.67234e-05
7.77091e-08
1.67266e-05
6.19816e-08
1.67363e-05
7.63577e-08
1.67437e-05
9.47357e-08
1.67458e-05
9.83649e-08
1.67457e-05
8.73855e-08
1.67475e-05
7.49635e-08
1.67515e-05
6.84195e-08
1.67565e-05
6.72043e-08
6.70284e-08
1.67607e-05
1.75325e-05
1.73717e-09
1.75312e-05
3.90463e-08
1.75225e-05
3.18096e-09
1.75317e-05
2.21651e-08
1.75381e-05
8.71591e-08
1.75241e-05
6.50647e-08
1.75143e-05
9.88391e-09
1.75248e-05
3.21149e-08
1.75362e-05
9.39136e-08
1.75346e-05
1.12022e-07
1.75272e-05
8.51623e-08
1.75271e-05
6.20859e-08
1.75353e-05
6.80941e-08
1.7544e-05
8.60472e-08
1.75482e-05
9.4175e-08
1.75485e-05
8.70722e-08
1.75494e-05
7.41341e-08
1.75523e-05
6.55271e-08
1.75568e-05
6.26701e-08
6.2536e-08
1.75613e-05
1.83696e-05
5.06583e-10
1.83702e-05
3.83808e-08
1.83614e-05
1.20412e-08
1.83672e-05
1.63418e-08
1.83763e-05
7.81069e-08
1.83666e-05
7.47635e-08
1.83543e-05
2.21391e-08
1.83605e-05
2.59562e-08
1.83733e-05
8.10841e-08
1.83761e-05
1.09207e-07
1.83699e-05
9.14177e-08
1.83672e-05
6.47209e-08
1.8373e-05
6.22673e-08
1.8382e-05
7.70813e-08
1.83881e-05
8.80828e-08
1.83897e-05
8.55216e-08
1.839e-05
7.38106e-08
1.83919e-05
6.36425e-08
1.83956e-05
5.89586e-08
5.8129e-08
1.84e-05
1.92468e-05
1.0426e-10
1.9249e-05
3.62002e-08
1.92408e-05
2.01787e-08
1.92432e-05
1.39532e-08
1.92535e-05
6.78612e-08
1.92485e-05
7.97801e-08
1.92357e-05
3.49327e-08
1.92373e-05
2.43095e-08
1.92498e-05
6.85611e-08
1.92563e-05
1.02739e-07
1.92526e-05
9.50735e-08
1.92486e-05
6.87798e-08
1.92517e-05
5.91239e-08
1.92599e-05
6.88997e-08