/*--------------------------------*- C++ -*----------------------------------*\
| =========                 |                                                 |
| \\      /  F ield         | OpenFOAM: The Open Source CFD Toolbox           |
|  \\    /   O peration     | Version:  v2012                                 |
|   \\  /    A nd           | Website:  www.openfoam.com                      |
|    \\/     M anipulation  |                                                 |
\*---------------------------------------------------------------------------*/
FoamFile
{
    version     2.0;
    format      ascii;
    class       volScalarField;
    location    "3";
    object      p;
}
// * * * * * * * * * * * * * * * * * * * * * * * * * * * * * * * * * * * * * //

dimensions      [0 2 -2 0 0 0 0];


internalField   nonuniform List<scalar> 
17600
(
5.3497e-11
0.000294939
-4.20558e-06
-0.000893334
-0.0012923
-0.00148863
-0.00139031
-0.00220783
-0.00216216
-0.00301306
-0.00284695
-0.00366669
-0.00352507
-0.00372163
-0.00354516
-0.00297083
-0.002296
-0.000257869
0.00129611
0.0052441
9.02288e-07
0.000293938
-3.16312e-06
-0.000893817
-0.0012916
-0.00148923
-0.00138966
-0.00221041
-0.00216133
-0.00301816
-0.00284534
-0.00367366
-0.00352269
-0.00373132
-0.00354101
-0.00299034
-0.00228828
-0.000344738
0.00131157
0.00491951
1.93848e-06
0.000292278
-1.32144e-06
-0.000894743
-0.00129059
-0.00149041
-0.00138962
-0.00221465
-0.00216181
-0.00302613
-0.00284437
-0.00368429
-0.00351991
-0.00374513
-0.00353645
-0.00301447
-0.00228048
-0.000424347
0.00130796
0.00448675
2.77854e-06
0.000290448
8.87982e-07
-0.000896265
-0.0012897
-0.00149188
-0.0013907
-0.00221982
-0.00216412
-0.00303557
-0.00284504
-0.00369555
-0.00351834
-0.00375848
-0.00353343
-0.00303786
-0.00227381
-0.000504097
0.00127282
0.0040611
3.57201e-06
0.000288436
3.44604e-06
-0.000898471
-0.00128879
-0.00149359
-0.00139259
-0.00222581
-0.00216722
-0.00304612
-0.00284587
-0.00370671
-0.00351666
-0.003771
-0.00353064
-0.00306093
-0.00226995
-0.000586859
0.00120658
0.00365713
4.41465e-06
0.000286182
6.35068e-06
-0.000901268
-0.00128769
-0.00149547
-0.00139484
-0.00223233
-0.00217031
-0.00305729
-0.00284602
-0.00371751
-0.00351429
-0.00378296
-0.00352791
-0.00308447
-0.00227072
-0.000672823
0.00111015
0.00327625
5.31182e-06
0.000283709
9.57692e-06
-0.000904467
-0.00128636
-0.00149738
-0.00139712
-0.00223913
-0.00217318
-0.00306871
-0.00284574
-0.00372778
-0.003512
-0.00379437
-0.00352648
-0.00310844
-0.00227804
-0.000761725
0.000984309
0.00291401
6.26492e-06
0.000281073
1.30875e-05
-0.000907886
-0.00128483
-0.00149924
-0.00139933
-0.00224613
-0.00217594
-0.00308033
-0.00284555
-0.00373755
-0.00351071
-0.00380492
-0.00352791
-0.00313204
-0.002294
-0.000852954
0.000830369
0.00256452
7.30198e-06
0.000278314
1.68571e-05
-0.000911425
-0.00128318
-0.00150102
-0.00140151
-0.00225336
-0.00217878
-0.00309214
-0.00284578
-0.00374683
-0.00351097
-0.0038143
-0.00353342
-0.00315433
-0.00232065
-0.000946172
0.000650731
0.00222142
8.46573e-06
0.000275443
2.08728e-05
-0.000915066
-0.00128151
-0.00150276
-0.00140372
-0.00226082
-0.0021819
-0.00310407
-0.00284671
-0.00375543
-0.0035132
-0.00382209
-0.00354387
-0.0031748
-0.00235969
-0.00104178
0.000448934
0.00187877
9.79898e-06
0.000272452
2.51253e-05
-0.00091883
-0.00127988
-0.00150446
-0.00140601
-0.00226848
-0.00218542
-0.00311594
-0.00284863
-0.00376295
-0.00351808
-0.00382768
-0.00355997
-0.0031933
-0.00241208
-0.00114154
0.000229446
0.00153199
1.13405e-05
0.000269325
2.96091e-05
-0.000922732
-0.00127831
-0.00150615
-0.00140842
-0.00227627
-0.00218949
-0.00312754
-0.00285189
-0.00376888
-0.00352637
-0.00383045
-0.00358243
-0.00321034
-0.00247776
-0.00124877
-2.74305e-06
0.00117863
1.31279e-05
0.000266042
3.43225e-05
-0.000926769
-0.00127682
-0.00150781
-0.00141096
-0.00228412
-0.00219429
-0.00313857
-0.00285693
-0.00377272
-0.00353881
-0.00383004
-0.00361197
-0.00322675
-0.00255539
-0.00136754
-0.000243004
0.000818358
1.52003e-05
0.000262583
3.92664e-05
-0.000930923
-0.00127542
-0.00150941
-0.00141368
-0.00229192
-0.00219999
-0.00314869
-0.00286426
-0.00377396
-0.00355604
-0.00382633
-0.00364896
-0.00324437
-0.00264253
-0.00150165
-0.000488118
0.000452446
1.75996e-05
0.000258928
4.44426e-05
-0.000935164
-0.00127414
-0.00151096
-0.00141662
-0.00229952
-0.00220685
-0.00315754
-0.00287439
-0.00377216
-0.00357852
-0.00381951
-0.00369317
-0.00326598
-0.00273632
-0.00165378
-0.000736733
8.34314e-05
2.03693e-05
0.000255059
4.98527e-05
-0.000939453
-0.001273
-0.00151237
-0.0014199
-0.00230677
-0.00221513
-0.00316474
-0.00288782
-0.003767
-0.00360634
-0.00380972
-0.00374376
-0.00329494
-0.00283439
-0.00182533
-0.000988974
-0.000285461
2.35538e-05
0.000250961
5.54967e-05
-0.000943742
-0.00127207
-0.00151356
-0.00142363
-0.00231344
-0.00222516
-0.00316988
-0.00290503
-0.00375838
-0.00363941
-0.00379951
-0.00379907
-0.00333466
-0.00293557
-0.00201614
-0.00124625
-0.000651189
2.71971e-05
0.000246623
6.13711e-05
-0.000947964
-0.00127144
-0.00151443
-0.00142797
-0.0023193
-0.00223728
-0.00317262
-0.00292633
-0.00374636
-0.00367756
-0.00379021
-0.00385669
-0.00338788
-0.00303995
-0.0022243
-0.00151101
-0.0010116
3.13409e-05
0.000242052
6.74619e-05
-0.000952031
-0.00127119
-0.00151486
-0.00143312
-0.00232406
-0.0022518
-0.00317274
-0.00295186
-0.00373138
-0.00372009
-0.00378405
-0.00391451
-0.00345657
-0.00314841
-0.00244667
-0.00178585
-0.00136549
3.60163e-05
0.000237279
7.3742e-05
-0.000955828
-0.00127148
-0.00151469
-0.00143932
-0.00232748
-0.00226898
-0.00317012
-0.00298146
-0.0037143
-0.00376555
-0.00378337
-0.00397154
-0.00354199
-0.00326291
-0.00267965
-0.00207252
-0.00171249
4.12341e-05
0.000232357
8.01863e-05
-0.000959217
-0.00127245
-0.00151373
-0.00144683
-0.00232934
-0.00228896
-0.00316488
-0.00301467
-0.00369633
-0.00381224
-0.00379016
-0.00402761
-0.0036445
-0.00338663
-0.00292031
-0.00237154
-0.00205328
4.69982e-05
0.000227353
8.67515e-05
-0.00096201
-0.00127433
-0.00151178
-0.00145584
-0.00232953
-0.00231171
-0.00315739
-0.00305078
-0.0036787
-0.00385873
-0.00380585
-0.00408308
-0.00376356
-0.00352371
-0.00316742
-0.00268259
-0.00238962
5.33122e-05
0.000222406
9.33314e-05
-0.000964002
-0.00127734
-0.0015087
-0.00146646
-0.00232808
-0.00233703
-0.00314819
-0.00308888
-0.00366271
-0.0039039
-0.00383122
-0.00413912
-0.00389796
-0.00367813
-0.00342162
-0.00300513
-0.00272447
6.01248e-05
0.000217751
9.97916e-05
-0.000965005
-0.00128167
-0.00150434
-0.00147873
-0.00232513
-0.00236456
-0.00313804
-0.00312792
-0.00364939
-0.00394673
-0.00386637
-0.00419697
-0.00404598
-0.00385262
-0.00368467
-0.00333932
-0.00306228
6.7364e-05
0.00021361
0.000106088
-0.000964845
-0.0012875
-0.00149885
-0.00149246
-0.00232127
-0.00239345
-0.0031281
-0.00316661
-0.00363995
-0.00398661
-0.00391094
-0.00425753
-0.00420469
-0.00404852
-0.00395914
-0.00368924
-0.00340914
7.49378e-05
0.000210263
0.000112153
-0.000963362
-0.00129494
-0.00149247
-0.00150727
-0.00231721
-0.0024228
-0.00311915
-0.00320408
-0.00363479
-0.0040236
-0.00396465
-0.00432137
-0.00436882
-0.00425996
-0.00424605
-0.00406784
-0.00377544
8.26759e-05
0.000208139
0.000117845
-0.000960448
-0.00130402
-0.00148539
-0.0015228
-0.00231339
-0.0024522
-0.00311118
-0.00324019
-0.00363331
-0.0040586
-0.00402773
-0.00438986
-0.00453613
-0.00448399
-0.00453561
-0.00445116
-0.00419629
9.04241e-05
0.000207625
0.000123181
-0.000956147
-0.00131463
-0.00147832
-0.00153845
-0.00231046
-0.00248106
-0.00310429
-0.00327521
-0.00363569
-0.00409158
-0.00410072
-0.00446802
-0.00471268
-0.00472464
-0.00483338
-0.00484246
-0.00463067
9.79488e-05
0.000209042
0.000128377
-0.000950611
-0.00132639
-0.00147215
-0.00155352
-0.0023089
-0.00250902
-0.00309851
-0.00330962
-0.00364403
-0.00412414
-0.00418576
-0.00456196
-0.00489631
-0.00498097
-0.00514057
-0.0052365
-0.00507143
0.000104988
0.000212682
0.000133579
-0.000944134
-0.00133871
-0.00146751
-0.00156775
-0.00230861
-0.00253685
-0.00309327
-0.00334471
-0.00366254
-0.00416182
-0.00428211
-0.00466966
-0.00508506
-0.00524957
-0.00545507
-0.00562576
-0.00551106
0.000111378
0.000218755
0.000138976
-0.000937168
-0.00135096
-0.00146481
-0.0015813
-0.00230915
-0.00256604
-0.00308484
-0.00338153
-0.00369303
-0.00420516
-0.0043854
-0.00478753
-0.0052771
-0.00552702
-0.00577582
-0.00600745
-0.00594245
0.000117014
0.000227373
0.000146764
-0.000930243
-0.00136293
-0.00146415
-0.00159505
-0.00231002
-0.00259867
-0.00308856
-0.00342004
-0.00373327
-0.00425344
-0.00449251
-0.00491318
-0.00547082
-0.00581098
-0.00610418
-0.00638271
-0.00636205
0.000121831
0.00023847
0.000157185
-0.000923809
-0.00137458
-0.00146534
-0.00161065
-0.00231178
-0.00263592
-0.00310156
-0.00345821
-0.00377904
-0.00430584
-0.00460239
-0.00504611
-0.0056663
-0.00610034
-0.00644197
-0.00675353
-0.00676816
0.000125789
0.000251581
0.000171486
-0.000917648
-0.00138646
-0.00146805
-0.00163026
-0.00231755
-0.00267744
-0.00312203
-0.00349506
-0.00382732
-0.00436215
-0.00471552
-0.00518716
-0.00586427
-0.0063931
-0.00678816
-0.00712191
-0.00716022
0.000129095
0.000265918
0.000190626
-0.000910876
-0.00139976
-0.00147241
-0.00165628
-0.0023313
-0.00272035
-0.0031474
-0.00353052
-0.00387687
-0.00442266
-0.00483331
-0.00533721
-0.0060643
-0.00668535
-0.00713943
-0.00748973
-0.00753956
0.000132191
0.000280571
0.000215108
-0.000902302
-0.00141514
-0.00147963
-0.00168993
-0.0023523
-0.0027622
-0.00317615
-0.003566
-0.00392748
-0.00448713
-0.00495677
-0.00549681
-0.0062655
-0.00697267
-0.00749179
-0.00785876
-0.00790945
0.000135462
0.000294532
0.000244959
-0.000890415
-0.00143625
-0.00149218
-0.00172981
-0.00237993
-0.00280235
-0.00320715
-0.00360361
-0.00397989
-0.00455486
-0.00508549
-0.00566621
-0.00646818
-0.00725196
-0.00784069
-0.00822918
-0.00827366
0.000139418
0.00030684
0.000279099
-0.000874026
-0.00146334
-0.00151039
-0.0017733
-0.00241417
-0.00284106
-0.00323934
-0.00364495
-0.00403572
-0.00462517
-0.00521739
-0.00584489
-0.00667441
-0.00752249
-0.00818128
-0.00859827
-0.00863437
0.000144997
0.000316642
0.000315578
-0.000852328
-0.001496
-0.00153442
-0.0018185
-0.00245491
-0.00287981
-0.00327215
-0.0036903
-0.00409653
-0.00469775
-0.00534942
-0.00603107
-0.00688709
-0.00778606
-0.00850988
-0.00896112
-0.00899109
0.000153199
0.000323264
0.00035784
-0.000824502
-0.0015329
-0.00156513
-0.00186409
-0.00250167
-0.00292088
-0.00330517
-0.00373887
-0.00416315
-0.00477278
-0.00547895
-0.00622198
-0.00710825
-0.00804586
-0.00882497
-0.00931252
-0.00934101
0.000164796
0.000326353
0.000390938
-0.000790464
-0.00157259
-0.00160332
-0.00190918
-0.00255342
-0.00296609
-0.0033382
-0.00378929
-0.004236
-0.00485125
-0.0056046
-0.00641431
-0.00733747
-0.00830476
-0.00912693
-0.00964844
-0.00967999
0.000180317
0.000326332
0.000417539
-0.000751602
-0.00161396
-0.00164941
-0.00195299
-0.00260847
-0.00301655
-0.00337151
-0.00384012
-0.00431525
-0.00493501
-0.00572596
-0.00660381
-0.00757174
-0.00856449
-0.00941766
-0.00996696
-0.0100038
0.000200003
0.000324202
0.000436304
-0.000710717
-0.00165645
-0.00170342
-0.00199462
-0.00266456
-0.00307306
-0.00340602
-0.00388986
-0.00440033
-0.00502625
-0.00584333
-0.00678556
-0.00780613
-0.00882573
-0.00970043
-0.0102687
-0.0103095
0.000223976
0.000321168
0.000446145
-0.000671507
-0.00169992
-0.00176551
-0.00203356
-0.00271876
-0.0031359
-0.00344325
-0.00393684
-0.0044893
-0.00512686
-0.00595857
-0.00695557
-0.00803464
-0.00908739
-0.00997865
-0.0105563
-0.0105959
0.00025242
0.000318399
0.000445517
-0.000637058
-0.00174405
-0.00183574
-0.00207037
-0.00276813
-0.00320432
-0.00348529
-0.00397973
-0.00457863
-0.0052375
-0.00607537
-0.00711261
-0.00825092
-0.00934543
-0.0102538
-0.0108329
-0.0108638
0.000285368
0.000316408
0.000432987
-0.000609626
-0.00178759
-0.00191371
-0.00210682
-0.00281077
-0.00327656
-0.00353441
-0.0040185
-0.00466395
-0.00535641
-0.00619792
-0.00725912
-0.00844999
-0.00959313
-0.0105243
-0.0111013
-0.0111159
0.000322546
0.000315025
0.000406251
-0.000593649
-0.00182877
-0.0019991
-0.00214569
-0.0028459
-0.00335001
-0.0035921
-0.00405473
-0.00474106
-0.00547906
-0.00632865
-0.00739938
-0.00862991
-0.00982344
-0.0107853
-0.0113625
-0.0113556
0.000360969
0.00031332
0.000369625
-0.000580616
-0.00186633
-0.00209177
-0.00219015
-0.00287348
-0.00342199
-0.00365895
-0.00409104
-0.004807
-0.00559933
-0.006467
-0.00753765
-0.00879178
-0.0100311
-0.0110305
-0.0116148
-0.0115859
0.000397437
0.000310428
0.000331235
-0.000574863
-0.00189949
-0.00219072
-0.0022427
-0.00289438
-0.00349015
-0.00373485
-0.00413012
-0.00486038
-0.00571058
-0.00660924
-0.00767716
-0.00893877
-0.0102134
-0.0112534
-0.0118537
-0.0118073
0.000432893
0.000306532
0.000270414
-0.000577631
-0.0019281
-0.0022943
-0.00230515
-0.00291
-0.0035518
-0.00381865
-0.00417433
-0.00490129
-0.00580649
-0.00674926
-0.00781909
-0.00907501
-0.0103707
-0.0114489
-0.0120732
-0.0120176
0.000464932
0.000301059
0.000204995
-0.000590104
-0.00195234
-0.00240016
-0.00237923
-0.00292263
-0.00360384
-0.00390815
-0.00422626
-0.0049314
-0.00588192
-0.00687919
-0.00796134
-0.00920433
-0.0105057
-0.0116141
-0.0122667
-0.0122116
0.000490897
0.000293245
0.000137544
-0.000613064
-0.00197312
-0.002506
-0.0024661
-0.00293525
-0.00364306
-0.00399914
-0.00428829
-0.004954
-0.00593343
-0.00698999
-0.0080974
-0.00932873
-0.0106226
-0.0117493
-0.0124295
-0.0123835
0.000509416
0.000282172
6.68077e-05
-0.000647325
-0.00199191
-0.00260983
-0.00256568
-0.00295109
-0.00366729
-0.00408527
-0.00436136
-0.00497435
-0.00595981
-0.00707276
-0.00821803
-0.00944636
-0.0107248
-0.0118569
-0.0125592
-0.0125274
0.000519816
0.00026692
-1.19751e-05
-0.000693934
-0.00201016
-0.00271026
-0.0026775
-0.00297367
-0.00367603
-0.00415918
-0.00444282
-0.00499808
-0.00596324
-0.00712051
-0.008313
-0.00955011
-0.0108128
-0.0119397
-0.0126554
-0.0126389
0.000521124
0.000246434
-9.75477e-05
-0.000753919
-0.00202949
-0.00280568
-0.00280036
-0.00300636
-0.00367033
-0.0042138
-0.00452564
-0.00502877
-0.00594974
-0.00713001
-0.00837142
-0.00962895
-0.0108827
-0.0119984
-0.0127187
-0.0127155
0.000511397
0.000218751
-0.000189319
-0.00082812
-0.00205193
-0.00289389
-0.00293184
-0.00305258
-0.00365353
-0.0042437
-0.00460009
-0.00506552
-0.00592618
-0.00710218
-0.00838437
-0.00967209
-0.0109263
-0.0120295
-0.0127494
-0.0127555
0.000488584
0.00018285
-0.000287452
-0.000917156
-0.00208039
-0.00297369
-0.00306861
-0.00311531
-0.00363137
-0.00424573
-0.00465559
-0.00510165
-0.00589611
-0.00704103
-0.0083467
-0.00966781
-0.010932
-0.0120282
-0.0127448
-0.0127578
0.000450451
0.00013735
-0.000391462
-0.00102146
-0.00211852
-0.00304524
-0.00320614
-0.00319538
-0.00361059
-0.00422034
-0.00468246
-0.00512679
-0.00585801
-0.00695064
-0.00825663
-0.00960568
-0.0108877
-0.011986
-0.012701
-0.0127201
0.000394471
7.81891e-05
-0.000500184
-0.00114093
-0.00216998
-0.00311029
-0.00333985
-0.00329068
-0.003597
-0.00417197
-0.00467375
-0.00512909
-0.00580557
-0.00683191
-0.0081139
-0.00947815
-0.0107819
-0.0118912
-0.0126106
-0.0126375
0.000319427
5.57192e-06
-0.000616957
-0.00127671
-0.00223823
-0.0031714
-0.00346624
-0.00339724
-0.0035943
-0.00410634
-0.00462669
-0.00509702
-0.00572883
-0.00668155
-0.00791741
-0.00927891
-0.0106015
-0.0117292
-0.0124618
-0.0125035
0.000223843
-8.38999e-05
-0.000743116
-0.0014291
-0.00232638
-0.00323182
-0.00358311
-0.00351116
-0.0036044
-0.00402924
-0.00454087
-0.00502091
-0.00561523
-0.00649191
-0.00766264
-0.00900029
-0.0103329
-0.0114826
-0.0122384
-0.0123053
0.000105208
-0.000193251
-0.00088007
-0.00159686
-0.00243704
-0.0032973
-0.00369028
-0.00362856
-0.00362858
-0.00394626
-0.00441809
-0.00489331
-0.00545138
-0.006251
-0.00734023
-0.0086306
-0.00995794
-0.0111298
-0.0119215
-0.0120217
-3.84182e-05
-0.000325557
-0.0010299
-0.00177879
-0.00257194
-0.00337473
-0.00378994
-0.00374601
-0.0036678
-0.00386429
-0.00426386
-0.00470994
-0.00522451
-0.00594223
-0.00693399
-0.00815089
-0.00945064
-0.0106361
-0.0114611
-0.0116106
-0.000208925
-0.000483825
-0.00119689
-0.00197406
-0.00273132
-0.00346936
-0.00388594
-0.00386168
-0.00372282
-0.00379398
-0.00408808
-0.0044714
-0.00492315
-0.00554417
-0.00641858
-0.00753277
-0.00877288
-0.00995343
-0.0108177
-0.0110371
-0.000410534
-0.000671509
-0.00138365
-0.00218047
-0.00291391
-0.0035854
-0.00398352
-0.00397531
-0.00379441
-0.00374835
-0.00390939
-0.00418521
-0.004535
-0.00502901
-0.00575804
-0.00673333
-0.00787891
-0.00902824
-0.0099333
-0.010251
-0.000655229
-0.000894287
-0.00158818
-0.0023969
-0.00311756
-0.00372539
-0.00408883
-0.00408922
-0.00388087
-0.00373765
-0.00376006
-0.00387658
-0.00406072
-0.00437092
-0.00489878
-0.00567808
-0.00667192
-0.00776067
-0.00871425
-0.00918076
-0.000946624
-0.0011701
-0.00180884
-0.00262589
-0.00334047
-0.00388757
-0.00420608
-0.00420673
-0.00398193
-0.00376154
-0.00366537
-0.00361846
-0.00355069
-0.00354996
-0.00373472
-0.00420245
-0.00496158
-0.0059309
-0.00695875
-0.00768891
-0.00126098
-0.00146921
-0.00209476
-0.00289734
-0.00358262
-0.0040669
-0.00433513
-0.00433242
-0.0041052
-0.00381632
-0.00362883
-0.0034958
-0.00323739
-0.00276052
-0.00221412
-0.00188019
-0.00198898
-0.0025894
-0.00352847
-0.00452913
-0.00160382
-0.00180862
-0.00244662
-0.00321293
-0.0038401
-0.00425651
-0.00447155
-0.00446968
-0.00426236
-0.00392084
-0.0035656
-0.00338714
-0.00337151
-0.00292321
-0.00172197
-0.000366235
0.000580477
0.00107137
0.00135492
0.00150111
-0.0020249
-0.00221813
-0.00281865
-0.0035343
-0.00409971
-0.00444544
-0.00460756
-0.00459295
-0.00443217
-0.00415693
-0.00346437
-0.00225317
-0.00101392
4.16484e-05
0.000916797
0.00173634
0.00258396
0.00340884
0.00402688
0.00413531
-0.00255274
-0.00270784
-0.0032095
-0.00383907
-0.00433639
-0.0046077
-0.0047128
-0.00464637
-0.00406844
-0.00293925
-0.00176496
-0.000795757
-3.05379e-05
0.000663474
0.00147484
0.0024536
0.00352522
0.00452968
0.00522625
0.00527281
-0.00317663
-0.0032909
-0.00365964
-0.00410635
-0.00446099
-0.00466475
-0.00441658
-0.00372116
-0.00288902
-0.00208208
-0.0013513
-0.000654652
0.000120529
0.00105117
0.00213556
0.00332678
0.0045301
0.00558805
0.00626851
0.00624027
-0.00389581
-0.00397454
-0.00422615
-0.00432284
-0.00417926
-0.00390021
-0.00351891
-0.00306734
-0.00255614
-0.00196149
-0.00124244
-0.000389507
0.000595033
0.00170026
0.00290686
0.00417048
0.00540284
0.00645367
0.00709371
0.0069889
-0.00470477
-0.00476796
-0.00445531
-0.00406354
-0.00370679
-0.00340056
-0.00312825
-0.00280446
-0.00235531
-0.00173149
-0.000924958
3.72542e-05
0.00111966
0.00229969
0.003558
0.00484691
0.00607409
0.0070912
0.00767325
0.00749326
-0.00535248
-0.00524354
-0.00469851
-0.0040358
-0.0034986
-0.00312405
-0.00282595
-0.00249304
-0.0020235
-0.0013695
-0.000533158
0.000459386
0.00157665
0.00279174
0.00407042
0.00535972
0.00656899
0.0075521
0.00808696
0.00784979
-0.00584601
-0.00564227
-0.00497635
-0.00414103
-0.00341377
-0.00289158
-0.00250809
-0.00212936
-0.00164767
-0.00100182
-0.0001745
0.000819885
0.00195078
0.00318274
0.00447288
0.00576137
0.0069554
0.00791042
0.00840741
0.00812586
-0.00626193
-0.00599102
-0.00521709
-0.00424355
-0.00336006
-0.00269936
-0.00222076
-0.00179875
-0.001312
-0.000678127
0.000135024
0.00112351
0.00225856
0.00350008
0.00479759
0.00608471
0.00726591
0.00819767
0.00866393
0.00834738
-0.00659921
-0.00627401
-0.00541661
-0.00433564
-0.00333035
-0.00255691
-0.00199624
-0.00153059
-0.00103102
-0.000404624
0.000394448
0.00137217
0.00250598
0.00375175
0.00505255
0.00633721
0.00750805
0.00842195
0.00886495
0.00852245
-0.0068519
-0.00649163
-0.00557174
-0.0044161
-0.00332859
-0.00247363
-0.00184683
-0.00133671
-0.00081182
-0.000172412
0.000630445
0.00160568
0.00273253
0.00397124
0.00526627
0.00654365
0.00770398
0.00860375
0.00902998
0.00866925
-0.00700736
-0.00663379
-0.0056889
-0.00449769
-0.00336781
-0.00246932
-0.00180116
-0.00125549
-0.000703322
-4.39491e-05
0.000776938
0.00176885
0.00290833
0.00415204
0.00544317
0.0067107
0.00786067
0.00875019
0.00916861
0.00880241
0.0090541
0.00385889
-0.00361726
-0.00873531
-0.00974116
-0.00848932
-0.00700142
-0.00595952
-0.00535557
-0.00503381
-0.00488164
-0.00484979
-0.00491063
-0.00502938
-0.00517121
-0.00531707
-0.00546301
-0.00560924
-0.00575381
-0.00589413
-0.00602969
-0.00616197
-0.00629219
-0.0064199
-0.00654423
-0.00666524
-0.00678425
-0.00690288
-0.00702161
-0.0071396
-0.00725591
-0.00737068
-0.0074849
-0.00759916
-0.00771319
-0.00782622
-0.00793782
-0.00804802
-0.00815676
-0.00826354
-0.00836796
-0.0084701
-0.00857021
-0.00866829
-0.0087643
-0.00885831
-0.0089507
-0.00904185
-0.00913194
-0.00922103
-0.00930935
-0.00939727
-0.00948495
-0.00957232
-0.0096591
-0.00974528
-0.00983107
-0.00991678
-0.0100023
-0.0100875
-0.0101721
-0.0102564
-0.0103409
-0.0104254
-0.0105098
-0.010594
-0.0106781
-0.0107627
-0.0108475
-0.0109323
-0.011017
-0.0111018
-0.0111867
-0.011272
-0.0113576
-0.0114434
-0.0115292
-0.011615
-0.0117013
-0.0117879
-0.0118748
-0.0119618
-0.0120491
-0.0121364
-0.0122241
-0.0123118
-0.0123997
-0.0124878
-0.012576
-0.0126641
-0.0127524
-0.0128407
-0.0129294
-0.0130184
-0.0131077
-0.0131972
-0.013287
-0.0133774
-0.0134681
-0.0135593
-0.0136508
-0.0137427
-0.0138349
-0.0139274
-0.01402
-0.0141131
-0.0142065
-0.0143003
-0.0143945
-0.0144889
-0.0145839
-0.0146791
-0.0147749
-0.0148708
-0.0149672
-0.0150637
-0.0151607
-0.015258
-0.0153558
-0.0154539
-0.0155526
-0.0156519
-0.0157516
-0.0158521
-0.0159528
-0.0160543
-0.0161559
-0.0162585
-0.0163611
-0.0164647
-0.0165687
-0.0166733
-0.0167785
-0.0168841
-0.0169905
-0.0170969
-0.0172044
-0.0173116
-0.0174199
-0.017528
-0.0176376
-0.0177474
-0.017858
-0.0179689
-0.0180803
-0.0181926
-0.0183046
-0.0184178
-0.018531
-0.0186456
-0.0187603
-0.018876
-0.018992
-0.0191082
-0.0192255
-0.0193427
-0.0194617
-0.0195798
-0.0197003
-0.0198203
-0.0199419
-0.0200632
-0.020185
-0.0203085
-0.0204312
-0.0205563
-0.02068
-0.0208064
-0.0209315
-0.0210579
-0.0211849
-0.0213115
-0.0214407
-0.0215677
-0.0216978
-0.0218257
-0.0219562
-0.0220863
-0.0222162
-0.0223484
-0.0224778
-0.0226113
-0.0227413
-0.0228743
-0.0230067
-0.0231379
-0.0232727
-0.0234024
-0.0235379
-0.0236694
-0.0238023
-0.0239367
-0.0240659
-0.0242008
-0.0243271
-0.0244598
-0.0245796
-0.0247021
-0.0248075
-0.0248966
0.00832622
0.00368691
-0.00353544
-0.00860276
-0.00966381
-0.0084526
-0.00697836
-0.00594317
-0.00534368
-0.00502469
-0.00487419
-0.00484338
-0.00490497
-0.00502431
-0.00516662
-0.00531288
-0.00545917
-0.00560571
-0.00575057
-0.00589115
-0.00602694
-0.00615943
-0.00628984
-0.00641773
-0.00654222
-0.00666338
-0.00678253
-0.00690127
-0.00702011
-0.00713819
-0.00725458
-0.00736943
-0.00748372
-0.00759804
-0.00771212
-0.0078252
-0.00793686
-0.0080471
-0.00815588
-0.00826269
-0.00836715
-0.00846932
-0.00856945
-0.00866757
-0.0087636
-0.00885765
-0.00895006
-0.00904123
-0.00913134
-0.00922045
-0.00930878
-0.00939672
-0.00948442
-0.00957181
-0.0096586
-0.0097448
-0.00983061
-0.00991633
-0.0100019
-0.0100871
-0.0101717
-0.0102561
-0.0103405
-0.0104251
-0.0105095
-0.0105936
-0.0106778
-0.0107623
-0.0108471
-0.010932
-0.0110167
-0.0111015
-0.0111864
-0.0112717
-0.0113574
-0.0114431
-0.0115289
-0.0116148
-0.011701
-0.0117876
-0.0118746
-0.0119616
-0.0120489
-0.0121362
-0.0122239
-0.0123116
-0.0123995
-0.0124876
-0.0125758
-0.0126639
-0.0127522
-0.0128406
-0.0129292
-0.0130182
-0.0131075
-0.0131971
-0.0132869
-0.0133772
-0.013468
-0.0135592
-0.0136507
-0.0137426
-0.0138348
-0.0139272
-0.0140199
-0.0141129
-0.0142064
-0.0143002
-0.0143944
-0.0144888
-0.0145838
-0.014679
-0.0147748
-0.0148707
-0.0149671
-0.0150636
-0.0151606
-0.0152579
-0.0153557
-0.0154538
-0.0155525
-0.0156518
-0.0157515
-0.015852
-0.0159527
-0.0160542
-0.0161559
-0.0162584
-0.016361
-0.0164647
-0.0165686
-0.0166732
-0.0167784
-0.016884
-0.0169904
-0.0170968
-0.0172043
-0.0173115
-0.0174198
-0.017528
-0.0176375
-0.0177473
-0.0178579
-0.0179689
-0.0180803
-0.0181925
-0.0183045
-0.0184178
-0.0185309
-0.0186456
-0.0187602
-0.0188759
-0.018992
-0.0191081
-0.0192255
-0.0193426
-0.0194616
-0.0195798
-0.0197002
-0.0198203
-0.0199418
-0.0200632
-0.020185
-0.0203085
-0.0204311
-0.0205563
-0.02068
-0.0208064
-0.0209315
-0.0210579
-0.0211848
-0.0213114
-0.0214407
-0.0215677
-0.0216977
-0.0218256
-0.0219562
-0.0220863
-0.0222162
-0.0223483
-0.0224778
-0.0226112
-0.0227412
-0.0228743
-0.0230066
-0.0231379
-0.0232727
-0.0234024
-0.0235379
-0.0236694
-0.0238023
-0.0239366
-0.0240658
-0.0242008
-0.0243271
-0.0244598
-0.0245796
-0.024702
-0.0248075
-0.0248966
0.00755937
0.00351665
-0.00335558
-0.00834977
-0.00952187
-0.00839584
-0.00694754
-0.0059199
-0.0053256
-0.00501092
-0.00486365
-0.00483512
-0.00489824
-0.00501859
-0.00516159
-0.00530837
-0.00545507
-0.00560197
-0.00574715
-0.005888
-0.00602403
-0.00615674
-0.00628736
-0.00641544
-0.0065401
-0.00666142
-0.00678072
-0.0068996
-0.00701855
-0.00713674
-0.00725323
-0.00736816
-0.00748253
-0.00759692
-0.00771106
-0.0078242
-0.0079359
-0.00804619
-0.00815501
-0.00826186
-0.00836636
-0.00846856
-0.00856872
-0.00866687
-0.00876293
-0.008857
-0.00894943
-0.00904062
-0.00913075
-0.00921989
-0.00930824
-0.00939619
-0.00948391
-0.00957132
-0.00965812
-0.00974434
-0.00983016
-0.0099159
-0.0100015
-0.0100867
-0.0101713
-0.0102557
-0.0103401
-0.0104247
-0.0105091
-0.0105933
-0.0106775
-0.010762
-0.0108468
-0.0109317
-0.0110164
-0.0111012
-0.0111862
-0.0112715
-0.0113571
-0.0114429
-0.0115287
-0.0116146
-0.0117008
-0.0117874
-0.0118744
-0.0119614
-0.0120487
-0.012136
-0.0122237
-0.0123114
-0.0123993
-0.0124874
-0.0125756
-0.0126638
-0.012752
-0.0128404
-0.0129291
-0.0130181
-0.0131073
-0.0131969
-0.0132867
-0.0133771
-0.0134678
-0.013559
-0.0136505
-0.0137425
-0.0138346
-0.0139271
-0.0140198
-0.0141128
-0.0142063
-0.0143
-0.0143943
-0.0144887
-0.0145837
-0.0146789
-0.0147746
-0.0148706
-0.014967
-0.0150635
-0.0151605
-0.0152578
-0.0153556
-0.0154538
-0.0155524
-0.0156517
-0.0157514
-0.0158519
-0.0159526
-0.0160542
-0.0161558
-0.0162583
-0.016361
-0.0164646
-0.0165686
-0.0166732
-0.0167784
-0.0168839
-0.0169903
-0.0170968
-0.0172043
-0.0173115
-0.0174197
-0.0175279
-0.0176375
-0.0177473
-0.0178579
-0.0179688
-0.0180802
-0.0181924
-0.0183045
-0.0184177
-0.0185309
-0.0186455
-0.0187602
-0.0188759
-0.0189919
-0.0191081
-0.0192254
-0.0193426
-0.0194616
-0.0195797
-0.0197002
-0.0198203
-0.0199418
-0.0200632
-0.020185
-0.0203085
-0.0204311
-0.0205563
-0.02068
-0.0208063
-0.0209314
-0.0210578
-0.0211848
-0.0213114
-0.0214406
-0.0215676
-0.0216977
-0.0218256
-0.0219561
-0.0220863
-0.0222162
-0.0223483
-0.0224778
-0.0226112
-0.0227412
-0.0228742
-0.0230066
-0.0231379
-0.0232727
-0.0234024
-0.0235378
-0.0236694
-0.0238023
-0.0239366
-0.0240658
-0.0242007
-0.0243271
-0.0244598
-0.0245796
-0.024702
-0.0248075
-0.0248965
0.00682755
0.00336628
-0.0031049
-0.0080116
-0.00932164
-0.00831367
-0.00690291
-0.0058847
-0.00529736
-0.00498955
-0.00484797
-0.00482362
-0.00488948
-0.00501148
-0.00515548
-0.00530296
-0.00545021
-0.00559755
-0.0057431
-0.00588428
-0.0060206
-0.00615357
-0.0062844
-0.00641269
-0.00653755
-0.00665908
-0.00677858
-0.00689763
-0.00701674
-0.00713507
-0.00725168
-0.00736672
-0.0074812
-0.00759568
-0.00770991
-0.00782311
-0.00793488
-0.00804522
-0.00815409
-0.00826099
-0.00836553
-0.00846777
-0.00856796
-0.00866614
-0.00876223
-0.00885633
-0.00894878
-0.00904
-0.00913016
-0.00921931
-0.00930768
-0.00939565
-0.00948339
-0.00957081
-0.00965764
-0.00974387
-0.0098297
-0.00991545
-0.010001
-0.0100862
-0.0101709
-0.0102553
-0.0103397
-0.0104243
-0.0105088
-0.010593
-0.0106771
-0.0107617
-0.0108465
-0.0109314
-0.0110161
-0.0111009
-0.0111859
-0.0112712
-0.0113568
-0.0114426
-0.0115284
-0.0116143
-0.0117006
-0.0117872
-0.0118741
-0.0119612
-0.0120485
-0.0121358
-0.0122235
-0.0123112
-0.0123992
-0.0124872
-0.0125754
-0.0126636
-0.0127518
-0.0128402
-0.0129289
-0.0130179
-0.0131072
-0.0131968
-0.0132866
-0.013377
-0.0134677
-0.0135589
-0.0136504
-0.0137423
-0.0138345
-0.013927
-0.0140197
-0.0141127
-0.0142062
-0.0142999
-0.0143942
-0.0144886
-0.0145836
-0.0146788
-0.0147745
-0.0148705
-0.0149669
-0.0150634
-0.0151604
-0.0152577
-0.0153555
-0.0154537
-0.0155523
-0.0156516
-0.0157513
-0.0158518
-0.0159525
-0.0160541
-0.0161557
-0.0162582
-0.0163609
-0.0164645
-0.0165685
-0.0166731
-0.0167783
-0.0168839
-0.0169903
-0.0170967
-0.0172042
-0.0173114
-0.0174197
-0.0175278
-0.0176374
-0.0177472
-0.0178578
-0.0179688
-0.0180801
-0.0181924
-0.0183044
-0.0184177
-0.0185308
-0.0186455
-0.0187601
-0.0188758
-0.0189919
-0.019108
-0.0192254
-0.0193425
-0.0194615
-0.0195797
-0.0197001
-0.0198202
-0.0199417
-0.0200631
-0.0201849
-0.0203084
-0.0204311
-0.0205562
-0.0206799
-0.0208063
-0.0209314
-0.0210578
-0.0211848
-0.0213114
-0.0214406
-0.0215676
-0.0216977
-0.0218256
-0.0219561
-0.0220862
-0.0222162
-0.0223483
-0.0224778
-0.0226112
-0.0227412
-0.0228742
-0.0230066
-0.0231379
-0.0232727
-0.0234024
-0.0235378
-0.0236694
-0.0238023
-0.0239366
-0.0240658
-0.0242007
-0.0243271
-0.0244598
-0.0245796
-0.024702
-0.0248075
-0.0248965
0.00612256
0.00320316
-0.00283506
-0.00764119
-0.00909471
-0.00821931
-0.00685111
-0.0058407
-0.00525966
-0.00496005
-0.00482614
-0.00480772
-0.00487758
-0.00500199
-0.00514745
-0.00529593
-0.00544395
-0.00559187
-0.00573788
-0.00587945
-0.00601614
-0.00614941
-0.0062805
-0.00640901
-0.00653411
-0.00665591
-0.00677569
-0.006895
-0.00701432
-0.00713284
-0.00724963
-0.00736485
-0.00747948
-0.00759411
-0.00770846
-0.00782176
-0.00793362
-0.00804404
-0.00815297
-0.00825994
-0.00836453
-0.00846683
-0.00856707
-0.00866529
-0.00876143
-0.00885556
-0.00894804
-0.00903928
-0.00912947
-0.00921865
-0.00930705
-0.00939505
-0.0094828
-0.00957025
-0.00965709
-0.00974334
-0.00982919
-0.00991496
-0.0100005
-0.0100858
-0.0101704
-0.0102548
-0.0103393
-0.0104239
-0.0105084
-0.0105926
-0.0106768
-0.0107613
-0.0108462
-0.0109311
-0.0110158
-0.0111006
-0.0111856
-0.0112709
-0.0113566
-0.0114423
-0.0115282
-0.0116141
-0.0117003
-0.0117869
-0.0118739
-0.011961
-0.0120483
-0.0121356
-0.0122232
-0.012311
-0.012399
-0.012487
-0.0125752
-0.0126634
-0.0127517
-0.01284
-0.0129287
-0.0130177
-0.013107
-0.0131966
-0.0132864
-0.0133768
-0.0134675
-0.0135588
-0.0136503
-0.0137422
-0.0138344
-0.0139269
-0.0140195
-0.0141126
-0.014206
-0.0142998
-0.014394
-0.0144885