/*--------------------------------*- C++ -*----------------------------------*\
| =========                 |                                                 |
| \\      /  F ield         | OpenFOAM: The Open Source CFD Toolbox           |
|  \\    /   O peration     | Version:  v2012                                 |
|   \\  /    A nd           | Website:  www.openfoam.com                      |
|    \\/     M anipulation  |                                                 |
\*---------------------------------------------------------------------------*/
FoamFile
{
    version     2.0;
    format      ascii;
    class       surfaceScalarField;
    location    "3";
    object      phi;
}
// * * * * * * * * * * * * * * * * * * * * * * * * * * * * * * * * * * * * * //

dimensions      [0 3 -1 0 0 0 0];
oriented        oriented;


internalField   nonuniform List<scalar> 
34900
(
1.1756e-06
-4.4195e-08
1.16663e-06
-1.12976e-07
1.17317e-06
8.78742e-09
1.1718e-06
-1.87691e-08
1.17714e-06
1.64075e-07
1.17282e-06
3.63656e-08
1.17613e-06
2.05384e-07
1.16518e-06
-1.13348e-07
1.1704e-06
2.47455e-07
1.15339e-06
-2.16565e-07
1.16262e-06
2.49025e-07
1.14325e-06
-1.67901e-07
1.15373e-06
1.67223e-07
1.13511e-06
-8.17765e-08
1.14585e-06
1.06914e-07
1.12674e-06
-2.95307e-08
1.13725e-06
6.49454e-08
1.11865e-06
1.04204e-08
1.12413e-06
6.50018e-08
1.731e-08
1.08437e-06
1.23094e-06
-5.08774e-08
1.22301e-06
-1.05042e-07
1.22858e-06
3.21749e-09
1.22938e-06
-1.95706e-08
1.23215e-06
1.61304e-07
1.23064e-06
3.78809e-08
1.23049e-06
2.05527e-07
1.22248e-06
-1.05334e-07
1.22287e-06
2.47063e-07
1.20991e-06
-2.03602e-07
1.21218e-06
2.46757e-07
1.20057e-06
-1.56292e-07
1.20102e-06
1.66766e-07
1.19526e-06
-7.60073e-08
1.19174e-06
1.10426e-07
1.19173e-06
-2.95165e-08
1.18119e-06
7.54865e-08
1.18907e-06
2.53709e-09
1.16477e-06
8.9303e-08
1.3378e-08
1.1687e-06
1.28751e-06
-5.56062e-08
1.28367e-06
-1.01202e-07
1.28604e-06
8.52686e-10
1.29049e-06
-2.40246e-08
1.28928e-06
1.62516e-07
1.29224e-06
3.4924e-08
1.28785e-06
2.09908e-07
1.28403e-06
-1.01505e-07
1.27974e-06
2.51344e-07
1.27168e-06
-1.95535e-07
1.26832e-06
2.50115e-07
1.26363e-06
-1.51608e-07
1.25797e-06
1.72436e-07
1.25913e-06
-7.71725e-08
1.25148e-06
1.18077e-07
1.25529e-06
-3.33219e-08
1.24561e-06
8.51649e-08
1.2494e-06
-1.25691e-09
1.23734e-06
1.01361e-07
2.637e-08
1.22435e-06
1.34593e-06
-5.74344e-08
1.34717e-06
-1.02442e-07
1.34556e-06
2.46874e-09
1.35355e-06
-3.20189e-08
1.349e-06
1.67064e-07
1.35555e-06
2.83722e-08
1.349e-06
2.16459e-07
1.34812e-06
-1.00627e-07
1.34236e-06
2.57106e-07
1.33709e-06
-1.90262e-07
1.33277e-06
2.54436e-07
1.3303e-06
-1.49142e-07
1.32528e-06
1.77458e-07
1.32574e-06
-7.76358e-08
1.32171e-06
1.22107e-07
1.32168e-06
-3.32863e-08
1.31791e-06
8.89309e-08
1.3155e-06
1.15257e-09
1.31053e-06
1.06335e-07
4.36072e-08
1.29329e-06
1.40723e-06
-5.63072e-08
1.41241e-06
-1.0763e-07
1.40762e-06
7.25906e-09
1.41712e-06
-4.15137e-08
1.41167e-06
1.72516e-07
1.41936e-06
2.068e-08
1.41393e-06
2.21886e-07
1.41375e-06
-1.00447e-07
1.40977e-06
2.61089e-07
1.40487e-06
-1.85359e-07
1.40267e-06
2.56628e-07
1.39937e-06
-1.45842e-07
1.39739e-06
1.79438e-07
1.39527e-06
-7.55093e-08
1.39461e-06
1.22766e-07
1.39172e-06
-3.03957e-08
1.39058e-06
9.0066e-08
1.38559e-06
6.14852e-09
1.38269e-06
1.09234e-07
6.10878e-08
1.36521e-06
1.47259e-06
-5.32211e-08
1.47927e-06
-1.14313e-07
1.4731e-06
1.34328e-08
1.48149e-06
-4.99089e-08
1.4775e-06
1.76512e-07
1.48424e-06
1.39433e-08
1.48197e-06
2.24152e-07
1.48128e-06
-9.97532e-08
1.48015e-06
2.62211e-07
1.47481e-06
-1.80013e-07
1.475e-06
2.5644e-07
1.47046e-06
-1.4131e-07
1.47083e-06
1.79076e-07
1.46693e-06
-7.16129e-08
1.46803e-06
1.21668e-07
1.46366e-06
-2.60271e-08
1.4638e-06
8.99304e-08
1.45717e-06
1.27767e-08
1.45581e-06
1.10591e-07
7.86205e-08
1.43828e-06
1.54267e-06
-4.96765e-08
1.54855e-06
-1.20193e-07
1.54266e-06
1.93225e-08
1.5483e-06
-5.55424e-08
1.54664e-06
1.78171e-07
1.55168e-06
8.90219e-09
1.5526e-06
2.23227e-07
1.55144e-06
-9.85902e-08
1.55268e-06
2.60968e-07
1.54711e-06
-1.74443e-07
1.54901e-06
2.54542e-07
1.54369e-06
-1.35992e-07
1.54559e-06
1.7718e-07
1.54063e-06
-6.66582e-08
1.54294e-06
1.19358e-07
1.53746e-06
-2.05492e-08
1.53879e-06
8.86011e-08
1.53068e-06
2.08918e-08
1.53071e-06
1.10558e-07
9.57691e-08
1.51356e-06
1.6173e-06
-4.68517e-08
1.62123e-06
-1.24122e-07
1.61648e-06
2.40745e-08
1.61918e-06
-5.82367e-08
1.61936e-06
1.77988e-07
1.62298e-06
5.27583e-09
1.62605e-06
2.20157e-07
1.62486e-06
-9.74007e-08
1.62771e-06
2.58121e-07
1.62222e-06
-1.68949e-07
1.62541e-06
2.5135e-07
1.61962e-06
-1.30198e-07
1.62277e-06
1.74025e-07
1.61702e-06
-6.0903e-08
1.62051e-06
1.15866e-07
1.61398e-06
-1.40233e-08
1.61651e-06
8.60739e-08
1.60713e-06
3.02778e-08
1.60815e-06
1.09532e-07
1.11912e-07
1.59201e-06
1.69587e-06
-4.51473e-08
1.69789e-06
-1.26144e-07
1.69438e-06
2.75862e-08
1.69499e-06
-5.88496e-08
1.69612e-06
1.76864e-07
1.69887e-06
2.5279e-09
1.70301e-06
2.16014e-07
1.70202e-06
-9.64119e-08
1.70597e-06
2.54174e-07
1.70063e-06
-1.63613e-07
1.70501e-06
2.46974e-07
1.69881e-06
-1.24004e-07
1.70323e-06
1.69609e-07
1.69671e-06
-5.43816e-08
1.70143e-06
1.11139e-07
1.69389e-06
-6.47777e-09
1.69751e-06
8.2452e-08
1.68717e-06
4.06212e-08
1.68869e-06
1.08011e-07
1.26476e-07
1.67412e-06
1.77789e-06
-4.43198e-08
1.77867e-06
-1.26915e-07
1.77617e-06
3.00852e-08
1.77581e-06
-5.84953e-08
1.77728e-06
1.75391e-07
1.77952e-06
2.89329e-10
1.78405e-06
2.11485e-07
1.78321e-06
-9.55683e-08
1.78797e-06
2.49413e-07
1.7827e-06
-1.58341e-07
1.78825e-06
2.41419e-07
1.78159e-06
-1.17344e-07
1.78734e-06
1.63863e-07
1.78e-06
-4.70425e-08
1.78598e-06
1.05157e-07
1.77747e-06
2.03305e-09
1.78197e-06
7.79566e-08
1.77108e-06
5.15103e-08
1.77253e-06
1.06561e-07
1.38974e-07
1.76003e-06
1.86333e-06
-4.39046e-08
1.86353e-06
-1.27107e-07
1.86178e-06
3.18266e-08
1.86131e-06
-5.80182e-08
1.86295e-06
1.73744e-07
1.86486e-06
-1.61431e-09
1.86944e-06
2.06899e-07
1.86856e-06
-9.46847e-08
1.87397e-06
2.44006e-07
1.86858e-06
-1.52952e-07
1.87531e-06
2.34683e-07
1.86806e-06
-1.1009e-07
1.87518e-06
1.56741e-07
1.86697e-06
-3.88257e-08
1.87415e-06
9.79706e-08
1.8648e-06
1.1381e-08
1.86983e-06
7.2935e-08
1.85889e-06
6.24427e-08
1.85969e-06
1.05765e-07
1.49053e-07
1.84961e-06
1.95247e-06
-4.35381e-08
1.9525e-06
-1.27136e-07
1.95131e-06
3.30151e-08
1.95115e-06
-5.78561e-08
1.95302e-06
1.71875e-07
1.95467e-06
-3.261e-09
1.95922e-06
2.02345e-07
1.95811e-06
-9.35725e-08
1.96408e-06
2.38038e-07
1.95837e-06
-1.47246e-07
1.96627e-06
2.26779e-07
1.95829e-06
-1.02108e-07
1.96678e-06
1.48253e-07
1.95767e-06
-2.97128e-08
1.9659e-06
8.97359e-08
1.95596e-06
2.1323e-08
1.96104e-06
6.78543e-08
1.95062e-06
7.28661e-08
1.95025e-06
1.06131e-07
1.5657e-07
1.94273e-06
2.0457e-06
-4.30481e-08
2.04574e-06
-1.27181e-07
2.04494e-06
3.38198e-08
2.04522e-06
-5.81324e-08
2.04739e-06
1.69696e-07
2.04883e-06
-4.69426e-09
2.0534e-06
1.97774e-07
2.05192e-06
-9.209e-08
2.05843e-06
2.3152e-07
2.05222e-06
-1.41035e-07
2.06127e-06
2.17734e-07
2.05245e-06
-9.329e-08
2.06223e-06
1.3847e-07
2.05228e-06
-1.97593e-08
2.0613e-06
8.07179e-08
2.05112e-06
3.1497e-08
2.05572e-06
6.32542e-08
2.04633e-06
8.22606e-08
2.0445e-06
1.07964e-07
1.6166e-07
2.03941e-06
2.14335e-06
-4.24005e-08
2.14346e-06
-1.2729e-07
2.1429e-06
3.4382e-08
2.14357e-06
-5.88006e-08
2.14611e-06
1.6715e-07
2.14736e-06
-5.9373e-09
2.15206e-06
1.93076e-07
2.15011e-06
-9.01431e-08
2.15722e-06
2.24409e-07
2.15035e-06
-1.34168e-07
2.16052e-06
2.07571e-07
2.1508e-06
-8.35787e-08
2.16176e-06
1.27517e-07
2.15111e-06
-9.11367e-09
2.16054e-06
7.12856e-08
2.15059e-06
4.14481e-08
2.15417e-06
5.9682e-08
2.14621e-06
9.02172e-08
2.14286e-06
1.11314e-07
1.64715e-07
2.1398e-06
2.24571e-06
-4.16202e-08
2.24588e-06
-1.27464e-07
2.24546e-06
3.48052e-08
2.24641e-06
-5.97523e-08
2.24935e-06
1.64211e-07
2.2504e-06
-6.98978e-09
2.25536e-06
1.8812e-07
2.25288e-06
-8.76658e-08
2.26067e-06
2.16625e-07
2.25303e-06
-1.26536e-07
2.26429e-06
1.9631e-07
2.25369e-06
-7.29766e-08
2.26563e-06
1.15578e-07
2.25454e-06
1.97401e-09
2.26394e-06
6.18902e-08
2.2547e-06
5.06842e-08
2.25677e-06
5.76181e-08
2.2505e-06
9.64882e-08
2.2458e-06
1.16006e-07
1.66289e-07
2.24423e-06
2.353e-06
-4.07446e-08
2.35323e-06
-1.27691e-07
2.35288e-06
3.51479e-08
2.354e-06
-6.08711e-08
2.35736e-06
1.60858e-07
2.35819e-06
-7.82423e-09
2.36354e-06
1.82774e-07
2.36047e-06
-8.46021e-08
2.36902e-06
2.08076e-07
2.36055e-06
-1.18069e-07
2.37288e-06
1.83987e-07
2.36146e-06
-6.15596e-08
2.37413e-06
1.02904e-07
2.36296e-06
1.31497e-08
2.37181e-06
5.30345e-08
2.36375e-06
5.8746e-08
2.36398e-06
5.73918e-08
2.35942e-06
1.01041e-07
2.35377e-06
1.21665e-07
1.66996e-07
2.35306e-06
2.46546e-06
-3.98077e-08
2.46571e-06
-1.27945e-07
2.46544e-06
3.54237e-08
2.46662e-06
-6.20494e-08
2.47042e-06
1.57056e-07
2.47098e-06
-8.38624e-09
2.47684e-06
1.76913e-07
2.47313e-06
-8.08947e-08
2.48253e-06
1.98679e-07
2.4732e-06
-1.08743e-07
2.48652e-06
1.70672e-07
2.47445e-06
-4.9491e-08
2.48752e-06
8.98309e-08
2.47671e-06
2.39679e-08
2.48451e-06
4.52321e-08
2.47798e-06
6.52713e-08
2.47625e-06
5.91198e-08
2.47321e-06
1.04083e-07
2.46711e-06
1.27763e-07
1.67422e-07
2.46669e-06
2.58332e-06
-3.88382e-08
2.58357e-06
-1.28188e-07
2.58338e-06
3.56061e-08
2.58452e-06
-6.3186e-08
2.58883e-06
1.52745e-07
2.58904e-06
-8.59807e-09
2.59554e-06
1.7042e-07
2.59113e-06
-7.64874e-08
2.60143e-06
1.88377e-07
2.59128e-06
-9.85847e-08
2.60545e-06
1.56496e-07
2.59299e-06
-3.70321e-08
2.60606e-06
7.67616e-08
2.59608e-06
3.39484e-08
2.60238e-06
3.89339e-08
2.59759e-06
7.00574e-08
2.59405e-06
6.26661e-08
2.59209e-06
1.06036e-07
2.58614e-06
1.33716e-07
1.68044e-07
2.58552e-06
2.70685e-06
-3.78616e-08
2.70703e-06
-1.28362e-07
2.707e-06
3.56322e-08
2.70799e-06
-6.41799e-08
2.7129e-06
1.47838e-07
2.71267e-06
-8.36581e-09
2.7199e-06
1.63188e-07
2.71475e-06
-7.13355e-08
2.72597e-06
1.77155e-07
2.71508e-06
-8.76897e-08
2.7299e-06
1.4167e-07
2.71741e-06
-2.45369e-08
2.73002e-06
6.41455e-08
2.72134e-06
4.26299e-08
2.7258e-06
3.44743e-08
2.72277e-06
7.30914e-08
2.71775e-06
6.7681e-08
2.71636e-06
1.07424e-07
2.71107e-06
1.39014e-07
1.69153e-07
2.70996e-06
2.83631e-06
-3.69022e-08
2.83634e-06
-1.28394e-07
2.83657e-06
3.54066e-08
2.83731e-06
-6.49259e-08
2.84292e-06
1.4223e-07
2.84215e-06
-7.59129e-09
2.8502e-06
1.55133e-07
2.84429e-06
-6.54263e-08
2.85638e-06
1.65064e-07
2.84493e-06
-7.62386e-08
2.86011e-06
1.26495e-07
2.848e-06
-1.24315e-08
2.85972e-06
5.2429e-08
2.85271e-06
4.96375e-08
2.85518e-06
3.20053e-08
2.85368e-06
7.45857e-08
2.84769e-06
7.3675e-08
2.84637e-06
1.08742e-07
2.84205e-06
1.43334e-07
1.70807e-07
2.8404e-06
2.97198e-06
-3.59835e-08
2.97177e-06
-1.28189e-07
2.97237e-06
3.48066e-08
2.97276e-06
-6.5314e-08
2.97918e-06
1.35806e-07
2.97778e-06
-6.18804e-09
2.98671e-06
1.46208e-07
2.98008e-06
-5.88024e-08
2.99291e-06
1.52239e-07
2.98118e-06
-6.45067e-08
2.99632e-06
1.1135e-07
2.98506e-06
-1.17552e-09
2.99549e-06
4.20021e-08
2.99038e-06
5.47469e-08
2.99095e-06
3.14414e-08
2.99057e-06
7.49583e-08
2.98412e-06
8.01317e-08
2.98249e-06
1.1037e-07
2.97926e-06
1.46559e-07
1.72857e-07
2.97721e-06
3.11415e-06
-3.51294e-08
3.1136e-06
-1.2764e-07
3.11472e-06
3.36876e-08
3.11464e-06
-6.52346e-08
3.12199e-06
1.28461e-07
3.1199e-06
-4.10133e-09
3.12968e-06
1.36424e-07
3.12247e-06
-5.15843e-08
3.13579e-06
1.38912e-07
3.12415e-06
-5.28616e-08
3.13883e-06
9.66691e-08
3.12888e-06
8.77671e-09
3.13771e-06
3.31696e-08
3.13456e-06
5.78946e-08
3.13353e-06
3.24777e-08
3.13377e-06
7.47169e-08
3.12727e-06
8.66333e-08
3.125e-06
1.1264e-07
3.1229e-06
1.48651e-07
1.75073e-07
3.12069e-06
3.26314e-06
-3.43629e-08
3.26213e-06
-1.26628e-07
3.26392e-06
3.18953e-08
3.26328e-06
-6.459e-08
3.27162e-06
1.20116e-07
3.26885e-06
-1.33192e-09
3.27941e-06
1.25874e-07
3.27181e-06
-4.39904e-08
3.2853e-06
1.25422e-07
3.2742e-06
-4.17597e-08
3.28795e-06
8.29243e-08
3.27971e-06
1.70071e-08
3.28674e-06
2.6144e-08
3.28552e-06
5.91151e-08
3.28332e-06
3.46821e-08
3.28383e-06
7.42041e-08
3.27742e-06
9.30414e-08
3.27395e-06
1.16109e-07
3.2733e-06
1.49305e-07
1.77457e-07
3.27091e-06
3.41927e-06
-3.37042e-08
3.41768e-06
-1.25034e-07
3.42029e-06
2.92816e-08
3.41902e-06
-6.3315e-08
3.42839e-06
1.10747e-07
3.42502e-06
2.03582e-09
3.43614e-06
1.14754e-07
3.42851e-06
-3.63581e-08
3.44172e-06
1.12211e-07
3.43167e-06
-3.17145e-08
3.44403e-06
7.05701e-08
3.43783e-06
2.32007e-08
3.44294e-06
2.10351e-08
3.44358e-06
5.84782e-08
3.4407e-06
3.7561e-08
3.44193e-06
7.29765e-08
3.43541e-06
9.95584e-08
3.42926e-06
1.2226e-07
3.4294e-06
1.49163e-07
1.7919e-07
3.42767e-06
3.58288e-06
-3.31702e-08
3.58059e-06
-1.22746e-07
3.58415e-06
2.57212e-08
3.58223e-06
-6.13928e-08
3.59258e-06
1.00398e-07
3.58878e-06
5.83158e-09
3.60019e-06
1.03341e-07
3.59289e-06
-2.9052e-08
3.60544e-06
9.96551e-08
3.59676e-06
-2.30354e-08
3.6076e-06
5.97342e-08
3.60333e-06
2.74697e-08
3.60687e-06
1.74978e-08
3.60893e-06
5.64207e-08
3.60625e-06
4.02389e-08
3.60989e-06
6.93306e-08
3.60939e-06
1.00058e-07
3.60434e-06
1.27312e-07
3.58889e-06
1.64611e-07
1.76134e-07
3.59195e-06
3.75431e-06
-3.27713e-08
3.75124e-06
-1.19675e-07
3.75582e-06
2.11349e-08
3.75331e-06
-5.88783e-08
3.7645e-06
8.9204e-08
3.76055e-06
9.78581e-09
3.7719e-06
9.19838e-08
3.76529e-06
-2.24408e-08
3.77693e-06
8.80193e-08
3.76963e-06
-1.57375e-08
3.77927e-06
5.00955e-08
3.77629e-06
3.04469e-08
3.77918e-06
1.46107e-08
3.78192e-06
5.36844e-08
3.78087e-06
4.12889e-08
3.78667e-06
6.35263e-08
3.79101e-06
9.57153e-08
3.79876e-06
1.19565e-07
3.81276e-06
1.50609e-07
1.99552e-07
3.78935e-06
3.93392e-06
-3.25062e-08
3.93003e-06
-1.15781e-07
3.93562e-06
1.55408e-08
3.9327e-06
-5.59516e-08
3.94445e-06
7.74476e-08
3.94079e-06
1.34499e-08
3.95158e-06
8.11879e-08
3.94614e-06
-1.69933e-08
3.95653e-06
7.76262e-08
3.95072e-06
-9.92454e-09
3.95919e-06
4.16231e-08
3.95742e-06
3.22159e-08
3.95985e-06
1.21784e-08
3.96368e-06
4.98552e-08
3.96051e-06
4.44651e-08
3.95464e-06
6.93893e-08
3.94759e-06
1.02769e-07
3.94013e-06
1.27022e-07
3.93183e-06
1.58907e-07
1.9086e-07
3.94053e-06
4.12211e-06
-3.23611e-08
4.11741e-06
-1.11083e-07
4.12388e-06
9.06757e-09
4.12084e-06
-5.29123e-08
4.13278e-06
6.55106e-08
4.12992e-06
1.6309e-08
4.13968e-06
7.14277e-08
4.13572e-06
-1.30327e-08
4.14474e-06
6.85997e-08
4.14033e-06
-5.51094e-09
4.14765e-06
3.43008e-08
4.1471e-06
3.27708e-08
4.14696e-06
1.23178e-08
4.14595e-06
5.08644e-08
4.13657e-06
5.38461e-08
4.13406e-06
7.18964e-08
4.12983e-06
1.07005e-07
4.12407e-06
1.32779e-07
4.12171e-06
1.61268e-07
1.86317e-07
4.12625e-06
4.31925e-06
-3.23067e-08
4.31383e-06
-1.05668e-07
4.32093e-06
1.97218e-09
4.31818e-06
-5.01669e-08
4.3299e-06
5.37963e-08
4.32827e-06
1.79344e-08
4.33677e-06
6.29245e-08
4.33422e-06
-1.04741e-08
4.34222e-06
6.05977e-08
4.3386e-06
-1.89144e-09
4.34464e-06
2.82574e-08
4.34209e-06
3.53177e-08
4.33714e-06
1.72751e-08
4.3355e-06
5.24987e-08
4.32902e-06
6.0326e-08
4.32541e-06
7.55129e-08
4.32261e-06
1.09804e-07
4.3187e-06
1.36689e-07
4.31865e-06
1.61313e-07
1.83017e-07
4.32195e-06
4.52576e-06
-3.22962e-08
4.51981e-06
-9.97134e-08
4.5271e-06
-5.31982e-09
4.52519e-06
-4.82556e-08
4.53624e-06
4.2743e-08
4.5362e-06
1.79727e-08
4.54346e-06
5.56677e-08
4.54191e-06
-8.92378e-09
4.54934e-06
5.31736e-08
4.54518e-06
2.26507e-09
4.54808e-06
2.53577e-08
4.54366e-06
3.97353e-08
4.5384e-06
2.25332e-08
4.53672e-06
5.41776e-08
4.53119e-06
6.58618e-08
4.5272e-06
7.95031e-08
4.52519e-06
1.1181e-07
4.52269e-06
1.3919e-07
4.5239e-06
1.60109e-07
1.80379e-07
4.52653e-06
4.74208e-06
-3.22652e-08
4.73586e-06
-9.34885e-08
4.74279e-06
-1.22479e-08
4.74228e-06
-4.7752e-08
4.75235e-06
3.26725e-08
4.754e-06
1.63254e-08
4.76035e-06
4.93155e-08
4.75912e-06
-7.68908e-09
4.76588e-06
4.64166e-08
4.75938e-06
8.75696e-09
4.75943e-06
2.5316e-08
4.75566e-06
4.35017e-08
4.75005e-06
2.81444e-08
4.74832e-06
5.59061e-08
4.74341e-06
7.07722e-08
4.73934e-06
8.35764e-08
4.73777e-06
1.13372e-07
4.73658e-06
1.40386e-07
4.73788e-06
1.58803e-07
1.77771e-07
4.74049e-06
4.96867e-06
-3.21346e-08
4.96252e-06
-8.73421e-08
4.96843e-06
-1.81566e-08
4.96986e-06
-4.91797e-08
4.97883e-06
2.36993e-08
4.98196e-06
1.31972e-08
4.98796e-06
4.33157e-08
4.9859e-06
-5.63328e-09
4.99067e-06
4.16492e-08
4.98263e-06
1.67939e-08
4.98108e-06
2.68696e-08
4.97801e-06
4.65723e-08
4.97242e-06
3.373e-08
4.97046e-06
5.78658e-08
4.96611e-06
7.5129e-08
4.96208e-06
8.76016e-08
4.96082e-06
1.1463e-07
4.96082e-06
1.40391e-07
4.96166e-06
1.57962e-07
1.74855e-07
4.96458e-06
5.206e-06
-3.18137e-08
5.20034e-06
-8.16838e-08
5.20457e-06
-2.23917e-08
5.20823e-06
-5.28404e-08
5.21634e-06
1.55938e-08
5.22046e-06
9.08007e-09
5.2264e-06
3.73724e-08
5.22221e-06
-1.44424e-09
5.22397e-06
3.98926e-08
5.21652e-06
2.42373e-08
5.2138e-06
2.95932e-08
5.21123e-06
4.91384e-08
5.20583e-06
3.91382e-08
5.20361e-06
6.00803e-08
5.19975e-06
7.89942e-08
5.19584e-06
9.15077e-08
5.19495e-06
1.15516e-07
5.19565e-06
1.39693e-07
5.19648e-06
1.57132e-07
1.71805e-07
5.19953e-06
5.45459e-06
-3.12152e-08
5.44985e-06
-7.69417e-08
5.45189e-06
-2.443e-08
5.45766e-06
-5.86109e-08
5.46546e-06
7.78991e-09
5.46974e-06
4.80288e-09
5.47518e-06
3.19303e-08
5.46805e-06
5.69054e-09
5.46788e-06
4.00574e-08
5.46161e-06
3.05094e-08
5.45821e-06
3.29908e-08
5.45583e-06
5.1521e-08
5.45064e-06
4.43262e-08
5.44827e-06
6.24557e-08
5.44484e-06
8.2418e-08
5.44111e-06
9.52343e-08
5.44063e-06
1.16003e-07
5.44164e-06
1.3868e-07
5.44287e-06
1.55903e-07
1.68674e-07
5.446e-06
5.715e-06
-3.02613e-08
5.7116e-06
-7.35365e-08
5.71118e-06
-2.40077e-08
5.71832e-06
-6.57557e-08
5.72642e-06
-3.07415e-10
5.72915e-06
2.06874e-09
5.73234e-06
2.8741e-08
5.72495e-06
1.30858e-08
5.72362e-06
4.13822e-08
5.71853e-06
3.55976e-08
5.71478e-06
3.67422e-08
5.71235e-06
5.39541e-08
5.70737e-06
4.93076e-08
5.70491e-06
6.49087e-08
5.70194e-06
8.53935e-08
5.69849e-06
9.86851e-08
5.69826e-06
1.16236e-07
5.69949e-06
1.37446e-07
5.70126e-06
1.54137e-07
1.65407e-07
5.70452e-06
5.98783e-06
-2.88956e-08
5.98614e-06
-7.18505e-08
5.98326e-06
-2.11315e-08
5.99045e-06
-7.29435e-08
5.99867e-06
-8.52196e-09
5.99827e-06
2.46668e-09
6.00042e-06
2.65924e-08
5.99412e-06
1.9381e-08
5.99213e-06
4.33709e-08
5.98779e-06
3.99394e-08
5.984e-06
4.05367e-08
5.98139e-06
5.65627e-08
5.97658e-06
5.41135e-08
5.97407e-06
6.74235e-08
5.97158e-06
8.78812e-08
5.96855e-06
1.01718e-07
5.96837e-06
1.16414e-07
5.96984e-06
1.35979e-07
5.97215e-06
1.51825e-07
1.61931e-07
5.97562e-06
6.27369e-06
-2.7093e-08
6.27395e-06
-7.2117e-08
6.269e-06
-1.61814e-08
6.27443e-06
-7.83684e-08
6.28222e-06
-1.63158e-08
6.28005e-06
4.6399e-09
6.28161e-06
2.50298e-08
6.27649e-06
2.44978e-08
6.27396e-06
4.59007e-08
6.26998e-06
4.39236e-08
6.26634e-06
4.418e-08
6.26358e-06
5.93225e-08
6.2589e-06
5.87906e-08
6.2563e-06
7.00236e-08
6.25431e-06
8.98697e-08
6.25187e-06
1.04162e-07
6.25162e-06
1.16662e-07
6.2533e-06
1.34299e-07
6.25611e-06
1.49011e-07
1.58176e-07
6.25987e-06
6.57323e-06
-2.48582e-08
6.57551e-06
-7.43889e-08
6.5691e-06
-9.77724e-09
6.57138e-06
-8.06505e-08
6.5791e-06
-2.40357e-08
6.5761e-06
7.64135e-09
6.57671e-06
2.44247e-08
6.5726e-06
2.86026e-08
6.56969e-06
4.88181e-08
6.56576e-06
4.7852e-08
6.56233e-06
4.76089e-08
6.55954e-06
6.21093e-08
6.55496e-06
6.33684e-08
6.55225e-06
7.27404e-08
6.55071e-06
9.14083e-08
6.549e-06
1.05874e-07
6.5487e-06
1.16963e-07
6.55052e-06
1.32475e-07
6.55375e-06
1.45781e-07
1.54084e-07
6.55784e-06
6.88716e-06
-2.22248e-08
6.89124e-06
-7.847e-08
6.88426e-06
-2.79612e-09
6.883e-06
-7.93959e-08
6.89044e-06
-3.14715e-08
6.88688e-06
1.11985e-08
6.88627e-06
2.50344e-08
6.88303e-06
3.18483e-08
6.87991e-06
5.19362e-08
6.87583e-06
5.19317e-08
6.87258e-06
5.08536e-08
6.8699e-06
6.4788e-08
6.86546e-06
6.78146e-08
6.8626e-06
7.5598e-08
6.86141e-06
9.25968e-08
6.86051e-06
1.06775e-07
6.86028e-06
1.17191e-07
6.86219e-06
1.30568e-07
6.86572e-06
1.42253e-07
1.49644e-07
6.87016e-06
7.21617e-06
-1.9262e-08
7.22162e-06
-8.39202e-08
7.21517e-06
3.65405e-09
7.21042e-06
-7.4646e-08
7.21693e-06
-3.79797e-08
7.213e-06
1.51344e-08
7.21093e-06
2.70973e-08
7.20838e-06
3.44046e-08
7.20526e-06
5.50521e-08
7.20095e-06
5.62451e-08
7.19775e-06
5.4046e-08
7.1953e-06
6.72406e-08
7.19108e-06
7.20385e-08
7.18808e-06
7.85989e-08
7.18715e-06
9.35281e-08
7.18701e-06
1.06913e-07
7.18705e-06
1.17151e-07
7.18903e-06
1.28586e-07
7.19274e-06
1.38547e-07
1.44906e-07
7.19747e-06
7.56102e-06
-1.60586e-08
7.56733e-06
-9.02304e-08
7.56238e-06
8.60179e-09
7.55447e-06
-6.67352e-08
7.55933e-06
-4.28395e-08
7.55511e-06
1.93541e-08
7.55144e-06
3.07753e-08
7.54931e-06
3.65313e-08
7.54644e-06
5.79246e-08
7.54187e-06
6.08152e-08
7.53857e-06
5.73456e-08
7.53641e-06
6.94025e-08
7.53254e-06
7.59065e-08
7.52943e-06
8.17101e-08
7.52869e-06
9.42643e-08
7.52914e-06
1.06466e-07
7.52966e-06
1.16632e-07
7.53177e-06
1.26475e-07
7.53557e-06
1.34743e-07
1.39954e-07
7.54052e-06
7.92247e-06
-1.27145e-08
7.92898e-06
-9.67412e-08
7.92639e-06
1.1187e-08
7.91593e-06
-5.62773e-08
7.91834e-06
-4.52442e-08
7.91391e-06
2.37801e-08
7.90861e-06
3.6082e-08
7.90656e-06
3.85764e-08
7.90412e-06
6.03621e-08
7.89938e-06
6.55636e-08
7.8958e-06
6.09216e-08
7.89392e-06
7.12807e-08
7.89056e-06
7.92663e-08
7.88743e-06
8.48417e-08
7.88682e-06
9.48772e-08
7.88766e-06
1.05626e-07
7.88879e-06
1.15497e-07
7.89113e-06
1.24134e-07
7.89501e-06
1.3087e-07
1.34873e-07
7.90009e-06
8.30128e-06
-9.31595e-09
8.30733e-06
-1.02784e-07
8.30777e-06
1.07446e-08
8.29516e-06
-4.36741e-08
8.29463e-06
-4.47137e-08
8.29009e-06
2.83265e-08
8.28332e-06
4.28502e-08
8.28095e-06
4.09412e-08
8.27904e-06
6.22811e-08
8.27428e-06
7.03176e-08
8.27029e-06
6.49082e-08
8.2686e-06
7.29755e-08
8.26588e-06
8.19843e-08
8.26289e-06
8.78361e-08
8.26232e-06
9.54463e-08
8.26341e-06
1.04534e-07
8.26517e-06
1.13734e-07
8.26787e-06
1.2144e-07
8.27184e-06
1.26897e-07
1.29726e-07
8.27699e-06
8.69828e-06
-5.92929e-09
8.70373e-06
-1.08238e-07
8.706e-06
8.47255e-09
8.69218e-06
-2.98512e-08
8.6888e-06
-4.13301e-08
8.68437e-06
3.27528e-08
8.67648e-06
5.07413e-08
8.67335e-06
4.40644e-08
8.67194e-06
6.36925e-08
8.66739e-06
7.48683e-08
8.66294e-06
6.93589e-08
8.66126e-06
7.46612e-08
8.65925e-06
8.3995e-08
8.6566e-06
9.04811e-08
8.65605e-06
9.59973e-08
8.65727e-06
1.03309e-07
8.65959e-06
1.11415e-07
8.66274e-06
1.18297e-07
8.66688e-06
1.22751e-07
1.24535e-07
8.67207e-06
9.11428e-06
-2.5913e-09
9.11893e-06
-1.12888e-07
9.12195e-06
5.45879e-09
9.10672e-06
-1.46269e-08
9.10143e-06
-3.60382e-08
9.09753e-06
3.66545e-08
9.08895e-06
5.93141e-08
9.08474e-06
4.82787e-08
9.08365e-06
6.47837e-08
9.07953e-06
7.89876e-08
9.07466e-06
7.42264e-08
9.07278e-06
7.65395e-08
9.07145e-06
8.53328e-08
9.06938e-06
9.25473e-08
9.06889e-06
9.6484e-08
9.07016e-06
1.02039e-07
9.07291e-06
1.08664e-07
9.07655e-06
1.14661e-07
9.08096e-06
1.18337e-07
1.19279e-07
9.08622e-06
9.55019e-06
6.76289e-10
9.55177e-06
-1.14461e-07
9.55407e-06
3.15799e-09
9.53964e-06
-2.04601e-10
9.53338e-06
-2.97785e-08
9.53041e-06
3.96279e-08
9.52162e-06
6.81009e-08
9.5161e-06
5.37989e-08
9.51505e-06
6.58363e-08
9.51153e-06
8.25046e-08
9.5064e-06
7.93615e-08
9.50415e-06
7.87892e-08
9.50335e-06
8.61344e-08
9.50205e-06
9.38442e-08
9.50173e-06
9.68022e-08
9.50302e-06
1.00751e-07
9.50606e-06
1.05627e-07
9.51016e-06
1.10556e-07
9.51493e-06
1.13573e-07
1.13901e-07
9.52031e-06
1.00069e-05
3.86288e-09
1.00036e-05
-1.11132e-07
1.00062e-05
6.06597e-10
9.99282e-06
1.31498e-08
9.98582e-06
-2.27849e-08
9.98387e-06
4.15838e-08
9.97533e-06
7.6639e-08
9.96845e-06
6.06744e-08
9.96711e-06
6.71814e-08
9.96428e-06
8.53353e-08
9.9591e-06
8.45378e-08
9.95637e-06
8.1517e-08
9.9559e-06
8.66093e-08
9.95546e-06
9.42789e-08
9.95546e-06
9.68092e-08
9.95682e-06
9.93919e-08
9.96001e-06
1.02433e-07
9.9645e-06
1.06068e-07
9.96966e-06
1.08414e-07
1.08317e-07
9.97524e-06
1.04856e-05
6.93429e-09
1.0478e-05
-1.03558e-07
1.04813e-05
-2.72773e-09
1.04683e-05
2.61616e-08
1.046e-05
-1.44864e-08
1.04588e-05
4.27869e-08
1.04509e-05
8.45333e-08
1.04428e-05
6.87992e-08
1.04408e-05
6.91582e-08
1.04387e-05
8.74919e-08
1.04337e-05
8.94957e-08
1.04305e-05
8.4728e-08
1.04301e-05
8.69875e-08
1.04305e-05
9.39029e-08
1.0431e-05
9.63323e-08
1.04325e-05
9.78547e-08
1.04358e-05
9.91437e-08
1.04405e-05
1.01313e-07
1.04461e-05
1.02877e-07
1.02455e-07
1.04519e-05
1.09871e-05
9.81382e-09
1.09823e-05
-9.87423e-08
1.09804e-05
-7.97538e-10
1.09672e-05
3.93734e-08
1.09573e-05
-4.59924e-09
1.09563e-05
4.38115e-08
1.09493e-05
9.14725e-08
1.09402e-05
7.79616e-08
1.09373e-05
7.20739e-08
1.09357e-05
8.90852e-08
1.09312e-05
9.39782e-08
1.09276e-05
8.83337e-08
1.09271e-05
8.74847e-08
1.09281e-05
9.28761e-08
1.09292e-05
9.5251e-08
1.0931e-05
9.59868e-08
1.09344e-05
9.57525e-08
1.09394e-05
9.63952e-08
1.09452e-05
9.70279e-08
9.62793e-08
1.09514e-05
1.15127e-05
1.2523e-08
1.15018e-05
-8.79355e-08
1.15025e-05
-1.44772e-09
1.14905e-05
5.13536e-08
1.1479e-05
6.94247e-09
1.14775e-05
4.53345e-08
1.14716e-05
9.73447e-08
1.14617e-05
8.78699e-08
1.14575e-05
7.62016e-08
1.14563e-05
9.03267e-08
1.14525e-05
9.77492e-08
1.14487e-05
9.21723e-08
1.14479e-05
8.82623e-08
1.14494e-05
9.13951e-08
1.14511e-05
9.35695e-08
1.14535e-05
9.35984e-08
1.1457e-05
9.21981e-08
1.1462e-05
9.13733e-08
1.14681e-05
9.09524e-08
8.97937e-08
1.14746e-05
1.20633e-05
1.50351e-08
1.205e-05
-7.46237e-08
1.20494e-05
-8.56331e-10
1.20391e-05
6.16781e-08
1.20261e-05
1.98832e-08
1.20236e-05
4.79009e-08
1.20187e-05
1.02228e-07
1.20084e-05
9.81503e-08
1.20029e-05
8.17384e-08
1.20017e-05
9.15234e-08
1.19988e-05
1.00643e-07
1.19949e-05
9.60205e-08
1.19938e-05
8.94034e-08
1.19955e-05
8.9693e-08
1.19977e-05
9.13595e-08
1.20008e-05
9.0548e-08
1.20046e-05
8.83815e-08
1.20097e-05
8.6254e-08
1.20159e-05
8.47207e-08
8.30311e-08
1.20227e-05
1.26403e-05
1.73501e-08
1.26254e-05
-5.9711e-08
1.26238e-05
7.35535e-10
1.26142e-05
7.12819e-08
1.25999e-05
3.41874e-08
1.25959e-05
5.18463e-08
1.25918e-05
1.06367e-07
1.25815e-05
1.08434e-07
1.25745e-05
8.8759e-08
1.25729e-05
9.30754e-08
1.25709e-05
1.02632e-07
1.25674e-05
9.95723e-08
1.25659e-05
9.09184e-08
1.25675e-05
8.80452e-08
1.25703e-05
8.86035e-08
1.25739e-05
8.68754e-08
1.25782e-05
8.4137e-08
1.25834e-05
8.10199e-08
1.25898e-05
7.83554e-08
7.60228e-08
1.25968e-05
1.32448e-05
1.94682e-08
1.32314e-05
-4.62609e-08
1.32266e-05
5.45299e-09
1.3217e-05
8.09315e-08
1.32014e-05
4.98227e-08
1.31958e-05
5.74427e-08
1.3192e-05
1.10094e-07
1.31821e-05
1.18386e-07
1.31737e-05
9.71896e-08
1.31713e-05
9.53898e-08
1.31701e-05
1.03898e-07
1.31672e-05
1.02489e-07
1.31653e-05
9.27511e-08
1.31667e-05
8.66918e-08
1.317e-05
8.52539e-08
1.31741e-05
8.28043e-08
1.3179e-05
7.92047e-08
1.31843e-05
7.57089e-08
1.31909e-05
7.1784e-08
6.87791e-08
1.31982e-05
1.38782e-05
2.14168e-08
1.38645e-05
-3.25634e-08
1.3858e-05
1.19229e-08
1.38487e-05
9.02495e-08
1.3832e-05
6.65151e-08
1.38245e-05
6.49979e-08
1.38208e-05
1.13762e-07
1.38114e-05
1.27803e-07
1.38018e-05
1.06815e-07
1.37983e-05
9.88469e-08
1.37974e-05
1.04794e-07
1.37953e-05
1.04571e-07
1.37934e-05
9.4701e-08
1.37944e-05
8.57196e-08
1.37981e-05
8.15116e-08
1.38025e-05
7.84403e-08
1.38083e-05
7.33972e-08
1.38136e-05
7.03422e-08
1.38206e-05
6.48608e-08
6.12786e-08
1.38281e-05
1.45419e-05
2.32194e-08
1.45257e-05
-1.6444e-08
1.45193e-05
1.83733e-08
1.45106e-05
9.89376e-08
1.44933e-05
8.38426e-08
1.44835e-05
7.48183e-08
1.44795e-05
1.17724e-07
1.44707e-05
1.36636e-07
1.44602e-05
1.17302e-07
1.44553e-05
1.03742e-07
1.44543e-05
1.05748e-07
1.4453e-05
1.05856e-07
1.44513e-05
9.64198e-08
1.44519e-05
8.51179e-08
1.44556e-05
7.78259e-08
1.44606e-05
7.34963e-08
1.44668e-05
6.71851e-08
1.44729e-05
6.42428e-08
1.44799e-05
5.78293e-08
5.33571e-08
1.44878e-05
1.52372e-05
2.48743e-08
1.52216e-05
-8.43671e-10
1.52126e-05
2.7378e-08
1.5204e-05
1.07601e-07
1.51864e-05
1.01423e-07
1.51742e-05
8.70131e-08
1.51695e-05
1.22434e-07
1.51612e-05
1.44909e-07
1.51502e-05
1.28305e-07
1.51437e-05
1.10222e-07
1.51422e-05
1.07235e-07
1.51415e-05
1.06558e-07
1.51403e-05
9.76687e-08
1.51406e-05
8.4787e-08
1.5144e-05
7.44331e-08
1.51496e-05
6.79343e-08
1.51557e-05
6.10252e-08
1.51632e-05
5.67468e-08
1.51702e-05
5.08394e-08
4.50086e-08
1.51786e-05
1.59657e-05
2.64642e-08
1.595e-05
1.4885e-08
1.59388e-05
3.86016e-08
1.59304e-05
1.15974e-07
1.59127e-05
1.19121e-07
1.58983e-05
1.01466e-07
1.58922e-05
1.28465e-07
1.58844e-05
1.52725e-07
1.58732e-05
1.39552e-07
1.58651e-05
1.18256e-07
1.58626e-05
1.09763e-07
1.58622e-05
1.06977e-07
1.58614e-05
9.84534e-08
1.58617e-05
8.44825e-08
1.58648e-05
7.13702e-08
1.58706e-05
6.21484e-08
1.5877e-05
5.45726e-08
1.58852e-05
4.85465e-08
1.58935e-05
4.2599e-08
3.70316e-08
1.59014e-05
1.67289e-05
2.81349e-08
1.67103e-05
3.35634e-08
1.66999e-05
4.89996e-08
1.66916e-05
1.24255e-07
1.66738e-05
1.36882e-07
1.66573e-05
1.17993e-07
1.66494e-05
1.36316e-07
1.66418e-05
1.60373e-07
1.66305e-05
1.50855e-07
1.66211e-05
1.27663e-07
1.66171e-05
1.13772e-07
1.66165e-05
1.07563e-07
1.6616e-05
9.89246e-08
1.66165e-05
8.40014e-08
1.66193e-05
6.85829e-08
1.66248e-05
5.66095e-08
1.6632e-05
4.73693e-08
1.66406e-05
3.9952e-08
1.66498e-05
3.34561e-08
2.82086e-08
1.66586e-05
1.75286e-05
2.9858e-08
1.75148e-05
4.74094e-08
1.74986e-05
6.5192e-08
1.7489e-05
1.33898e-07
1.74713e-05
1.54569e-07
1.74529e-05
1.36394e-07
1.74428e-05
1.46363e-07
1.74349e-05
1.68304e-07
1.74236e-05
1.6215e-07
1.7413e-05
1.3828e-07
1.74073e-05
1.19482e-07
1.74059e-05
1.08962e-07
1.74055e-05
9.93086e-08
1.74061e-05
8.33451e-08
1.74087e-05
6.59787e-08
1.74141e-05
5.12695e-08
1.74218e-05
3.97001e-08
1.74309e-05
3.07975e-08
1.74408e-05
2.35485e-08
1.79794e-08
1.7451e-05
1.83664e-05
3.18486e-08
1.835e-05
6.37911e-08
1.83352e-05
7.9985e-08
1.83244e-05
1.44703e-07
1.83068e-05
1.72156e-07
1.82867e-05
1.56452e-07
1.82742e-05
1.5891e-07
1.82654e-05
1.77061e-07
1.82541e-05
1.73501e-07
1.82424e-05
1.49994e-07
1.82348e-05
1.27018e-07
1.8232e-05
1.11796e-07
1.82313e-05
9.99927e-08
1.8232e-05
8.26911e-08
1.82345e-05
6.34804e-08
1.82397e-05
4.60258e-08
1.82476e-05
3.18129e-08
1.82574e-05
2.09667e-08
1.82685e-05
1.25044e-08
6.55332e-09
1.82799e-05
1.9244e-05
3.42351e-08
1.92297e-05
7.80618e-08
1.92119e-05
9.782e-08
1.91995e-05
1.5711e-07
1.91821e-05
1.89544e-07
1.91607e-05
1.77905e-07
1.91454e-05
1.74197e-07
1.91352e-05
1.87191e-07
1.91236e-05
1.85167e-07
1.91108e-05
1.62743e-07
1.91013e-05
1.3653e-07
1.90965e-05
1.16603e-07
1.9095e-05