/*--------------------------------*- C++ -*----------------------------------*\
| =========                 |                                                 |
| \\      /  F ield         | OpenFOAM: The Open Source CFD Toolbox           |
|  \\    /   O peration     | Version:  v2012                                 |
|   \\  /    A nd           | Website:  www.openfoam.com                      |
|    \\/     M anipulation  |                                                 |
\*---------------------------------------------------------------------------*/
FoamFile
{
    version     2.0;
    format      ascii;
    class       volVectorField;
    location    "3";
    object      U;
}
// * * * * * * * * * * * * * * * * * * * * * * * * * * * * * * * * * * * * * //

dimensions      [0 1 -1 0 0 0 0];


internalField   nonuniform List<vector> 
17600
(
(0.824542 -0.000396363 0)
(1.17391 -0.00129385 0)
(0.836417 0.000146589 0)
(1.15762 -0.00024729 0)
(0.861356 0.00235727 0)
(1.14167 0.000521367 0)
(0.877464 0.00346372 0)
(1.12434 -0.0021749 0)
(0.881582 0.00496337 0)
(1.11063 -0.00487574 0)
(0.875654 0.00596545 0)
(1.1023 -0.00454965 0)
(0.867175 0.00478216 0)
(1.09517 -0.00273935 0)
(0.859516 0.00364586 0)
(1.08991 -0.00134627 0)
(0.848604 0.00259953 0)
(1.08685 0.000198789 0)
(0.832615 0.00280629 0)
(1.08454 0.000459513 0)
(0.835871 -0.0004742 0)
(1.16179 -0.00119698 0)
(0.849129 7.68162e-05 0)
(1.14494 -0.000240884 0)
(0.875152 0.00229394 0)
(1.12703 0.00057174 0)
(0.893664 0.00342583 0)
(1.10674 -0.00199152 0)
(0.899984 0.00488521 0)
(1.08864 -0.00453085 0)
(0.897419 0.00580844 0)
(1.07364 -0.00414675 0)
(0.896791 0.004638 0)
(1.05685 -0.0024164 0)
(0.903172 0.0035932 0)
(1.03703 -0.00113813 0)
(0.914668 0.00282243 0)
(1.01064 0.000203828 0)
(0.932767 0.00402958 0)
(0.971001 -0.000189409 0)
(0.857545 -0.000544523 0)
(1.13852 -0.00111393 0)
(0.873745 1.43251e-05 0)
(1.12039 -0.000269848 0)
(0.901258 0.00226726 0)
(1.10038 0.000575616 0)
(0.92231 0.00345393 0)
(1.07819 -0.00186296 0)
(0.930926 0.00490569 0)
(1.05776 -0.00427872 0)
(0.931799 0.00578265 0)
(1.03919 -0.003912 0)
(0.937131 0.00466842 0)
(1.01884 -0.00232101 0)
(0.948419 0.00374299 0)
(0.999268 -0.00116007 0)
(0.959567 0.00318447 0)
(0.980693 -2.6102e-05 0)
(0.966745 0.00450653 0)
(0.964029 0.000726962 0)
(0.886433 -0.00057839 0)
(1.10757 -0.00109835 0)
(0.905181 7.08015e-06 0)
(1.08869 -0.000354843 0)
(0.932393 0.00231324 0)
(1.06904 0.000496553 0)
(0.953328 0.00355521 0)
(1.04905 -0.00183201 0)
(0.961642 0.00502242 0)
(1.03151 -0.00415559 0)
(0.962646 0.00590097 0)
(1.01613 -0.00384513 0)
(0.96747 0.00485304 0)
(1.00095 -0.00235408 0)
(0.974282 0.00395684 0)
(0.990008 -0.00119575 0)
(0.977576 0.00341609 0)
(0.981765 4.96259e-07 0)
(0.976137 0.00475873 0)
(0.974372 0.00177651 0)
(0.917671 -0.00057783 0)
(1.07478 -0.00114231 0)
(0.936399 5.20192e-05 0)
(1.05691 -0.000478618 0)
(0.960098 0.00239515 0)
(1.0411 0.000374238 0)
(0.977666 0.00366838 0)
(1.02725 -0.00183375 0)
(0.983354 0.0051369 0)
(1.01587 -0.00405535 0)
(0.982404 0.0060065 0)
(1.00623 -0.0037789 0)
(0.984255 0.00498692 0)
(0.997168 -0.002332 0)
(0.986418 0.00406719 0)
(0.991688 -0.00115099 0)
(0.985807 0.00352994 0)
(0.986773 0.000155344 0)
(0.982556 0.00490311 0)
(0.98053 0.00275334 0)
(0.94619 -0.000551774 0)
(1.04616 -0.00121646 0)
(0.961777 0.000124174 0)
(1.03121 -0.000603405 0)
(0.979386 0.00246831 0)
(1.02122 0.000257513 0)
(0.992078 0.00373834 0)
(1.01454 -0.0018251 0)
(0.995023 0.00519231 0)
(1.00894 -0.0039383 0)
(0.992544 0.00603351 0)
(1.00357 -0.00366907 0)
(0.992408 0.00500918 0)
(0.997979 -0.00223626 0)
(0.992455 0.00406468 0)
(0.994473 -0.00103744 0)
(0.990777 0.00356209 0)
(0.990369 0.000380786 0)
(0.987308 0.00499521 0)
(0.984689 0.00367153 0)
(0.968502 -0.000514717 0)
(1.02532 -0.00129041 0)
(0.979065 0.000199305 0)
(1.01424 -0.000696562 0)
(0.990042 0.00250885 0)
(1.00957 0.000168254 0)
(0.998445 0.00374812 0)
(1.00838 -0.00180362 0)
(0.999957 0.00518867 0)
(1.0065 -0.00381513 0)
(0.997186 0.00600271 0)
(1.00343 -0.00353736 0)
(0.996435 0.0049636 0)
(0.999451 -0.00209687 0)
(0.9959 0.00399307 0)
(0.996698 -0.000859914 0)
(0.994023 0.00352177 0)
(0.993056 0.00069066 0)
(0.990576 0.00501825 0)
(0.988002 0.00456736 0)
(0.983568 -0.000481258 0)
(1.01259 -0.00134458 0)
(0.989098 0.000263178 0)
(1.0051 -0.00074693 0)
(0.994787 0.00251675 0)
(1.00376 0.000104659 0)
(1.0004 0.00371051 0)
(1.00562 -0.0017802 0)
(1.0017 0.00514473 0)
(1.00574 -0.003696 0)
(0.999417 0.00593969 0)
(1.00394 -0.00339785 0)
(0.998774 0.00488876 0)
(1.00084 -0.00193588 0)
(0.998241 0.00388634 0)
(0.998558 -0.000632695 0)
(0.996421 0.00342333 0)
(0.995299 0.00107621 0)
(0.993138 0.00497611 0)
(0.990784 0.00541152 0)
(0.992406 -0.000459113 0)
(1.00594 -0.00137471 0)
(0.994175 0.000311614 0)
(1.00114 -0.000763372 0)
(0.996694 0.00250473 0)
(1.00125 5.74899e-05 0)
(1.00079 0.00364643 0)
(1.00433 -0.00176104 0)
(1.00238 0.00507494 0)
(1.00549 -0.00358132 0)
(1.00081 0.00585042 0)
(1.00456 -0.00324878 0)
(1.0005 0.00478675 0)
(1.00212 -0.0017557 0)
(1.00015 0.00375122 0)
(1.00023 -0.000370595 0)
(0.998471 0.00328103 0)
(0.997304 0.00152006 0)
(0.995412 0.00489382 0)
(0.993266 0.00616942 0)
(0.996967 -0.000447876 0)
(1.00283 -0.00138711 0)
(0.996524 0.000346324 0)
(0.999836 -0.000761374 0)
(0.997723 0.00248492 0)
(1.00039 1.979e-05 0)
(1.00101 0.00357175 0)
(1.00367 -0.00174593 0)
(1.00289 0.00498729 0)
(1.00537 -0.00346896 0)
(1.00194 0.00573421 0)
(1.00514 -0.00308706 0)
(1.00197 0.00464808 0)
(1.00327 -0.00154819 0)
(1.00181 0.0035742 0)
(1.00173 -7.58605e-05 0)
(1.00029 0.00310355 0)
(0.9991 0.00199787 0)
(0.997455 0.00480566 0)
(0.995502 0.00681736 0)
(0.999099 -0.000442914 0)
(1.00138 -0.00139041 0)
(0.9976 0.000370675 0)
(0.999593 -0.000754141 0)
(0.998625 0.00246268 0)
(1.00027 -1.18832e-05 0)
(1.00141 0.0034948 0)
(1.00334 -0.00173161 0)
(1.00341 0.00488608 0)
(1.0053 -0.00335613 0)
(1.0029 0.00559113 0)
(1.0056 -0.00291154 0)
(1.00319 0.00446931 0)
(1.00423 -0.00130855 0)
(1.00319 0.00334832 0)
(1.00299 0.000248731 0)
(1.0018 0.00289634 0)
(1.00062 0.00248287 0)
(0.999183 0.00474966 0)
(0.99742 0.00733871 0)
(1.00005 -0.000439652 0)
(1.00061 -0.00139069 0)
(0.998121 0.00038747 0)
(0.999656 -0.000749515 0)
(0.999477 0.00243822 0)
(1.00046 -3.90663e-05 0)
(1.00191 0.00341851 0)
(1.00321 -0.00171448 0)
(1.00386 0.00477367 0)
(1.00524 -0.00323871 0)
(1.00364 0.0054207 0)
(1.00594 -0.00271813 0)
(1.0041 0.00424973 0)
(1.00495 -0.00103827 0)
(1.00423 0.00308216 0)
(1.00394 0.00060069 0)
(1.00295 0.00267354 0)
(1.00178 0.00294544 0)
(1.00053 0.00475874 0)
(0.998953 0.00772644 0)
(1.0005 -0.000435505 0)
(1.00014 -0.00139083 0)
(0.998389 0.000398851 0)
(0.999761 -0.000750518 0)
(1.00018 0.00241001 0)
(1.00073 -6.26106e-05 0)
(1.00236 0.0033429 0)
(1.00319 -0.00169184 0)
(1.00419 0.00465096 0)
(1.0052 -0.00311196 0)
(1.00412 0.00522181 0)
(1.00614 -0.00250178 0)
(1.00471 0.00398962 0)
(1.00542 -0.000740232 0)
(1.00493 0.00278441 0)
(1.00458 0.000974228 0)
(1.00375 0.00246463 0)
(1.00261 0.00335589 0)
(1.00151 0.00484998 0)
(1.00011 0.00799006 0)
(1.00071 -0.000429698 0)
(0.999846 -0.00139172 0)
(0.998528 0.000406644 0)
(0.999848 -0.000757208 0)
(1.00069 0.002377 0)
(1.00099 -8.3221e-05 0)
(1.00269 0.00326662 0)
(1.00323 -0.00166189 0)
(1.00439 0.0045173 0)
(1.00518 -0.00297193 0)
(1.0044 0.00499528 0)
(1.00624 -0.00226177 0)
(1.00507 0.00369348 0)
(1.00569 -0.000419263 0)
(1.00537 0.00246612 0)
(1.00496 0.00134838 0)
(1.00427 0.00230099 0)
(1.00318 0.00369293 0)
(1.00219 0.0050236 0)
(1.00096 0.008155 0)
(1.00083 -0.000422358 0)
(0.99967 -0.00139348 0)
(0.9986 0.000412326 0)
(0.999916 -0.000768348 0)
(1.00101 0.00233881 0)
(1.00119 -0.000101254 0)
(1.0029 0.0031874 0)
(1.00329 -0.00162264 0)
(1.00448 0.0043706 0)
(1.00518 -0.00281557 0)
(1.00454 0.0047419 0)
(1.00628 -0.00199771 0)
(1.00528 0.00336594 0)
(1.00581 -8.52023e-05 0)
(1.00563 0.00214383 0)
(1.00518 0.00170057 0)
(1.00461 0.00220463 0)
(1.00356 0.00395075 0)
(1.00267 0.00526473 0)
(1.0016 0.00825346 0)
(1.00089 -0.000413863 0)
(0.999575 -0.00139603 0)
(0.998642 0.000416914 0)
(0.99997 -0.000782401 0)
(1.00121 0.00229508 0)
(1.00133 -0.000116304 0)
(1.00301 0.0031025 0)
(1.00335 -0.00157258 0)
(1.00451 0.00420906 0)
(1.00518 -0.0026407 0)
(1.0046 0.00446122 0)
(1.00627 -0.00170969 0)
(1.00541 0.00301514 0)
(1.00586 0.000248464 0)
(1.00579 0.0018324 0)
(1.0053 0.0020096 0)
(1.00483 0.00218619 0)
(1.00384 0.00413796 0)
(1.00304 0.00554781 0)
(1.00211 0.00831851 0)
(1.00092 -0.000404596 0)
(0.999529 -0.00139918 0)
(0.998674 0.000420881 0)
(1.00002 -0.00079794 0)
(1.00133 0.00224544 0)
(1.00142 -0.000127464 0)
(1.00306 0.00300954 0)
(1.0034 -0.00151099 0)
(1.00451 0.0040306 0)
(1.00519 -0.00244537 0)
(1.00464 0.004154 0)
(1.00625 -0.00140133 0)
(1.0055 0.00264811 0)
(1.00585 0.000582884 0)
(1.00591 0.00155505 0)
(1.00537 0.00225793 0)
(1.00499 0.00224753 0)
(1.00408 0.00426876 0)
(1.00334 0.00584313 0)
(1.00254 0.00837967 0)
(1.00093 -0.000394847 0)
(0.99951 -0.00140262 0)
(0.998705 0.000424188 0)
(1.00006 -0.00081376 0)
(1.00141 0.00218922 0)
(1.00148 -0.000133862 0)
(1.00308 0.00290719 0)
(1.00344 -0.00143696 0)
(1.0045 0.00383352 0)
(1.00519 -0.00223045 0)
(1.00467 0.00382455 0)
(1.0062 -0.00108056 0)
(1.00557 0.00227563 0)
(1.00582 0.000906393 0)
(1.006 0.0013332 0)
(1.00543 0.00243909 0)
(1.00512 0.00238196 0)
(1.0043 0.0043588 0)
(1.00361 0.00612199 0)
(1.00292 0.00845394 0)
(1.00093 -0.000384802 0)
(0.999506 -0.00140596 0)
(0.998738 0.000426213 0)
(1.00009 -0.000828287 0)
(1.00146 0.002125 0)
(1.00152 -0.000134001 0)
(1.00308 0.00279297 0)
(1.00347 -0.00134854 0)
(1.00448 0.00361744 0)
(1.00519 -0.00199902 0)
(1.00469 0.00347854 0)
(1.00615 -0.000757618 0)
(1.00564 0.00191502 0)
(1.00579 0.00119014 0)
(1.00607 0.00117459 0)
(1.00549 0.00255651 0)
(1.00523 0.00257511 0)
(1.00452 0.00442748 0)
(1.00388 0.0063649 0)
(1.00328 0.0085451 0)
(1.00093 -0.00037476 0)
(0.99951 -0.00140783 0)
(0.998773 0.000425411 0)
(1.00013 -0.000839788 0)
(1.00151 0.00205111 0)
(1.00154 -0.000126299 0)
(1.00307 0.00266355 0)
(1.00349 -0.00124416 0)
(1.00446 0.00338138 0)
(1.00518 -0.00175241 0)
(1.00472 0.00312012 0)
(1.00608 -0.00044161 0)
(1.00571 0.00157924 0)
(1.00575 0.0014191 0)
(1.00613 0.00108231 0)
(1.00555 0.00262004 0)
(1.00534 0.00280982 0)
(1.00474 0.00450114 0)
(1.00415 0.00656768 0)
(1.00361 0.00865271 0)
(1.00093 -0.00036532 0)
(0.999518 -0.00140657 0)
(0.99881 0.000421307 0)
(1.00017 -0.000847685 0)
(1.00155 0.00196651 0)
(1.00156 -0.000109398 0)
(1.00305 0.00251835 0)
(1.00351 -0.00112557 0)
(1.00444 0.00312827 0)
(1.00516 -0.00149779 0)
(1.00475 0.00275943 0)
(1.00602 -0.000145294 0)
(1.00578 0.00128003 0)
(1.00572 0.00158912 0)
(1.00619 0.00104997 0)
(1.00564 0.00263963 0)
(1.00545 0.00306164 0)
(1.00496 0.00460286 0)
(1.00442 0.00673758 0)
(1.00393 0.00877708 0)
(1.00093 -0.000356263 0)
(0.999531 -0.00140295 0)
(0.998847 0.000413323 0)
(1.00021 -0.000850348 0)
(1.00158 0.00186908 0)
(1.00158 -8.1298e-05 0)
(1.00304 0.00235853 0)
(1.00352 -0.000996491 0)
(1.00442 0.00286563 0)
(1.00514 -0.00124653 0)
(1.00479 0.00241044 0)
(1.00595 0.000118005 0)
(1.00585 0.00102301 0)
(1.0057 0.00170284 0)
(1.00624 0.0010636 0)
(1.00574 0.00262865 0)
(1.00557 0.00330355 0)
(1.00518 0.00474319 0)
(1.00471 0.00688665 0)
(1.00424 0.00891919 0)
(1.00092 -0.000347308 0)
(0.999547 -0.00139646 0)
(0.998882 0.000396444 0)
(1.00025 -0.000844974 0)
(1.00162 0.00175719 0)
(1.00159 -4.25038e-05 0)
(1.00302 0.0021851 0)
(1.00354 -0.000859193 0)
(1.00441 0.00259601 0)
(1.00512 -0.00100053 0)
(1.00483 0.00207663 0)
(1.00589 0.000347966 0)
(1.00591 0.000803586 0)
(1.00569 0.00176509 0)
(1.00628 0.00110358 0)
(1.00586 0.00260214 0)
(1.0057 0.0035115 0)
(1.00541 0.00491425 0)
(1.00502 0.00701908 0)
(1.00455 0.00907563 0)
(1.0009 -0.00034095 0)
(0.999569 -0.00138096 0)
(0.998914 0.00036562 0)
(1.00029 -0.000827744 0)
(1.00166 0.00162593 0)
(1.00161 1.10122e-05 0)
(1.003 0.00199456 0)
(1.00355 -0.000713008 0)
(1.0044 0.00232144 0)
(1.0051 -0.000765236 0)
(1.00487 0.001766 0)
(1.00582 0.000537861 0)
(1.00596 0.000633057 0)
(1.00569 0.00177646 0)
(1.00632 0.00116516 0)
(1.00599 0.00255746 0)
(1.00585 0.00367356 0)
(1.00565 0.00508506 0)
(1.00533 0.00713501 0)
(1.00486 0.00924552 0)
(1.00088 -0.000333876 0)
(0.999598 -0.00136133 0)
(0.99894 0.000331387 0)
(1.00034 -0.000810381 0)
(1.00169 0.00148855 0)
(1.00164 6.29693e-05 0)
(1.00298 0.00180953 0)
(1.00356 -0.000585534 0)
(1.00438 0.00208025 0)
(1.00508 -0.000583017 0)
(1.0049 0.00152302 0)
(1.00577 0.00064748 0)
(1.00601 0.000548332 0)
(1.00571 0.0017153 0)
(1.00636 0.00127881 0)
(1.00614 0.0024623 0)
(1.00602 0.00379518 0)
(1.00589 0.00515962 0)
(1.00566 0.00721976 0)
(1.00518 0.00940368 0)
(1.00085 -0.000328889 0)
(0.999632 -0.00133192 0)
(0.998962 0.000280881 0)
(1.00039 -0.000779536 0)
(1.00172 0.00133305 0)
(1.00166 0.000124857 0)
(1.00296 0.00161688 0)
(1.00358 -0.000460853 0)
(1.00436 0.0018471 0)
(1.00506 -0.000416389 0)
(1.00493 0.00129314 0)
(1.00572 0.000735928 0)
(1.00605 0.000463872 0)
(1.00574 0.0016524 0)
(1.00639 0.0013742 0)
(1.00629 0.00238629 0)
(1.00621 0.00382493 0)
(1.00615 0.00517617 0)
(1.00601 0.00715487 0)
(1.00553 0.0093815 0)
(1.00082 -0.00032707 0)
(0.99967 -0.00129167 0)
(0.99898 0.000212147 0)
(1.00044 -0.000736862 0)
(1.00174 0.0011615 0)
(1.00169 0.000191777 0)
(1.00293 0.00142294 0)
(1.0036 -0.000343651 0)
(1.00435 0.00162287 0)
(1.00503 -0.000262571 0)
(1.00496 0.00106934 0)
(1.00567 0.000815307 0)
(1.00607 0.000370038 0)
(1.00578 0.00159406 0)
(1.00642 0.00145439 0)
(1.00645 0.00237272 0)
(1.0064 0.00386375 0)
(1.00641 0.00525756 0)
(1.00636 0.00711608 0)
(1.00593 0.00937499 0)
(1.00078 -0.000322873 0)
(0.999711 -0.00124595 0)
(0.998994 0.000140424 0)
(1.0005 -0.000701864 0)
(1.00177 0.000995559 0)
(1.00172 0.000238219 0)
(1.0029 0.00126379 0)
(1.00361 -0.000267374 0)
(1.00432 0.00145124 0)
(1.00501 -0.000169354 0)
(1.00499 0.000907019 0)
(1.00563 0.000844753 0)
(1.00609 0.000353737 0)
(1.00584 0.00150468 0)
(1.00646 0.00160594 0)
(1.00662 0.00242336 0)
(1.00661 0.00398855 0)
(1.00668 0.00540534 0)
(1.00672 0.00718857 0)
(1.00634 0.00936987 0)
(1.00074 -0.000324239 0)
(0.999751 -0.00118427 0)
(0.999007 5.66884e-05 0)
(1.00055 -0.000660034 0)
(1.00179 0.000824492 0)
(1.00175 0.000275191 0)
(1.00287 0.00111807 0)
(1.00363 -0.000209436 0)
(1.0043 0.0012916 0)
(1.00498 -8.10261e-05 0)
(1.00501 0.000748517 0)
(1.00559 0.000883485 0)
(1.00611 0.000402889 0)
(1.00591 0.00148695 0)
(1.00651 0.00181055 0)
(1.00679 0.00256802 0)
(1.00684 0.0041346 0)
(1.00696 0.00560872 0)
(1.00708 0.00728661 0)
(1.00677 0.00936377 0)
(1.00069 -0.000324557 0)
(0.999788 -0.0011181 0)
(0.99902 -2.78263e-05 0)
(1.00061 -0.000628826 0)
(1.00182 0.00066846 0)
(1.00177 0.000280208 0)
(1.00283 0.000995048 0)
(1.00364 -0.000177615 0)
(1.00428 0.00114376 0)
(1.00495 4.9426e-06 0)
(1.00503 0.000609019 0)
(1.00556 0.000938065 0)
(1.00612 0.000518671 0)
(1.006 0.00154557 0)
(1.00657 0.00202618 0)
(1.00696 0.00274564 0)
(1.00708 0.00426964 0)
(1.00724 0.00578953 0)
(1.00744 0.00736226 0)
(1.00719 0.00929439 0)
(1.00065 -0.000325407 0)
(0.99982 -0.00104757 0)
(0.999032 -0.000111472 0)
(1.00065 -0.000610342 0)
(1.00184 0.000524449 0)
(1.0018 0.000263776 0)
(1.0028 0.000886369 0)
(1.00365 -0.000154592 0)
(1.00426 0.000999426 0)
(1.00492 0.000115056 0)
(1.00505 0.000551515 0)
(1.00555 0.00101963 0)
(1.00614 0.000690779 0)
(1.00609 0.00163531 0)
(1.00664 0.00222419 0)
(1.00713 0.00290552 0)
(1.00733 0.00435893 0)
(1.00753 0.00590133 0)
(1.00778 0.00739807 0)
(1.00761 0.00916775 0)
(1.00061 -0.000325089 0)
(0.999847 -0.000979451 0)
(0.999044 -0.000189825 0)
(1.00069 -0.000619687 0)
(1.00187 0.000399268 0)
(1.00182 0.000224487 0)
(1.00277 0.000785287 0)
(1.00365 -0.000119356 0)
(1.00425 0.000857941 0)
(1.00489 0.000263037 0)
(1.00507 0.000578653 0)
(1.00554 0.00111583 0)
(1.00615 0.000874381 0)
(1.00618 0.00172526 0)
(1.00671 0.00238703 0)
(1.0073 0.00304235 0)
(1.00759 0.00440862 0)
(1.00782 0.00596565 0)
(1.00811 0.00741749 0)
(1.008 0.0090338 0)
(1.00058 -0.000323459 0)
(0.999868 -0.000912098 0)
(0.999055 -0.000254002 0)
(1.00073 -0.000661744 0)
(1.00189 0.000289164 0)
(1.00184 0.000163915 0)
(1.00273 0.000687664 0)
(1.00364 -6.6884e-05 0)
(1.00424 0.000768259 0)
(1.00486 0.000422865 0)
(1.00509 0.000651942 0)
(1.00554 0.00120023 0)
(1.00617 0.00103001 0)
(1.00627 0.00179554 0)
(1.0068 0.00251065 0)
(1.00746 0.00316487 0)
(1.00785 0.00444003 0)
(1.00813 0.00599855 0)
(1.00844 0.00742253 0)
(1.00838 0.00890446 0)
(1.00054 -0.000321207 0)
(0.999883 -0.000850976 0)
(0.999063 -0.000288737 0)
(1.00076 -0.0007309 0)
(1.00192 0.000176124 0)
(1.00186 0.000104887 0)
(1.00271 0.000581958 0)
(1.00363 2.68217e-05 0)
(1.00424 0.000754885 0)
(1.00483 0.000578561 0)
(1.0051 0.00074754 0)
(1.00554 0.00127079 0)
(1.00618 0.00116916 0)
(1.00636 0.00186111 0)
(1.00689 0.00262476 0)
(1.00762 0.00329021 0)
(1.00812 0.00447215 0)
(1.00844 0.00599955 0)
(1.00876 0.00740024 0)
(1.00874 0.0087715 0)
(1.00051 -0.00031418 0)
(0.999895 -0.000808705 0)
(0.999065 -0.000295631 0)
(1.00078 -0.000820729 0)
(1.00194 6.24149e-05 0)
(1.00187 5.24607e-05 0)
(1.00269 0.000492694 0)
(1.00363 0.00016056 0)
(1.00424 0.000784684 0)
(1.00481 0.000710025 0)
(1.00511 0.00084563 0)
(1.00554 0.00133605 0)
(1.0062 0.00129696 0)
(1.00646 0.00192809 0)
(1.00699 0.00273785 0)
(1.00777 0.00341985 0)
(1.00838 0.00450379 0)
(1.00876 0.0059639 0)
(1.00909 0.00733925 0)
(1.00909 0.00862664 0)
(1.00048 -0.000301385 0)
(0.999905 -0.000785242 0)
(0.999063 -0.000270621 0)
(1.0008 -0.000918955 0)
(1.00197 -5.61065e-05 0)
(1.00188 2.50014e-05 0)
(1.00268 0.000442408 0)
(1.00362 0.000293529 0)
(1.00424 0.000833115 0)
(1.00478 0.000817226 0)
(1.00512 0.00093908 0)
(1.00554 0.00140736 0)
(1.00622 0.00141819 0)
(1.00655 0.00199562 0)
(1.00711 0.00284154 0)
(1.00793 0.00354595 0)
(1.00863 0.00453179 0)
(1.00908 0.00589498 0)
(1.00942 0.00723608 0)
(1.00942 0.00846348 0)
(1.00044 -0.000287101 0)
(0.999914 -0.000774462 0)
(0.999055 -0.000219698 0)
(1.00081 -0.00100165 0)
(1.00201 -0.000180576 0)
(1.00189 4.25167e-05 0)
(1.00267 0.000415314 0)
(1.00362 0.000406387 0)
(1.00424 0.000890622 0)
(1.00475 0.000901493 0)
(1.00513 0.00101965 0)
(1.00554 0.0014819 0)
(1.00623 0.00153962 0)
(1.00665 0.0020618 0)
(1.00723 0.00292461 0)
(1.00808 0.00365989 0)
(1.00887 0.00456177 0)
(1.00939 0.00580962 0)
(1.00975 0.0070972 0)
(1.00974 0.00827688 0)
(1.00041 -0.000267736 0)
(0.999925 -0.00078761 0)
(0.999045 -0.000151011 0)
(1.00081 -0.0010454 0)
(1.00205 -0.000295233 0)
(1.00191 8.96775e-05 0)
(1.00267 0.000400559 0)
(1.00362 0.000493896 0)
(1.00423 0.000951636 0)
(1.00473 0.000976161 0)
(1.00513 0.00109141 0)
(1.00555 0.00155751 0)
(1.00625 0.00166924 0)
(1.00675 0.0021318 0)
(1.00737 0.0029828 0)
(1.00823 0.00375462 0)
(1.0091 0.00459851 0)
(1.0097 0.00572749 0)
(1.01008 0.00693678 0)
(1.01006 0.00806601 0)
(1.00038 -0.000241344 0)
(0.99994 -0.000830328 0)
(0.999034 -6.88458e-05 0)
(1.0008 -0.00104332 0)
(1.0021 -0.000403279 0)
(1.00193 0.000144502 0)
(1.00266 0.000401027 0)
(1.00363 0.000553765 0)
(1.00423 0.0010153 0)
(1.0047 0.00105791 0)
(1.00514 0.00116181 0)
(1.00556 0.00163311 0)
(1.00627 0.00180298 0)
(1.00685 0.00220838 0)
(1.00752 0.00301598 0)
(1.0084 0.00382225 0)
(1.00932 0.00463584 0)
(1.00999 0.00565777 0)
(1.0104 0.00677008 0)
(1.01038 0.00783639 0)
(1.00035 -0.000211372 0)
(0.999959 -0.000892031 0)
(0.999028 1.71913e-05 0)
(1.00078 -0.000992186 0)
(1.00215 -0.000504259 0)
(1.00196 0.000199757 0)
(1.00266 0.000422866 0)
(1.00364 0.000594643 0)
(1.00423 0.00107803 0)
(1.00468 0.00115159 0)
(1.00515 0.0012306 0)
(1.00558 0.00170285 0)
(1.00629 0.00193055 0)
(1.00694 0.0022898 0)
(1.00767 0.00303122 0)
(1.00857 0.00385873 0)
(1.00954 0.00466103 0)
(1.01027 0.00559531 0)
(1.01072 0.00660372 0)
(1.01069 0.0075925 0)
(1.00032 -0.000177475 0)
(0.999984 -0.00096489 0)
(0.999031 9.12846e-05 0)
(1.00075 -0.000897617 0)
(1.0022 -0.000584329 0)
(1.00199 0.000259617 0)
(1.00266 0.000471537 0)
(1.00366 0.000630252 0)
(1.00424 0.00113618 0)
(1.00465 0.00125211 0)
(1.00516 0.00129907 0)
(1.00561 0.0017617 0)
(1.00631 0.00204976 0)
(1.00702 0.0023793 0)
(1.00783 0.00304357 0)
(1.00876 0.00386764 0)
(1.00975 0.0046646 0)
(1.01053 0.00553026 0)
(1.01102 0.00643826 0)
(1.011 0.00733854 0)
(1.00028 -0.000142762 0)
(1.00001 -0.00103857 0)
(0.999044 0.000134742 0)
(1.00072 -0.000770796 0)
(1.00226 -0.000632301 0)
(1.00205 0.000325174 0)
(1.00266 0.000547646 0)
(1.00368 0.000663797 0)
(1.00425 0.00118759 0)
(1.00463 0.00135524 0)
(1.00517 0.00137238 0)
(1.00566 0.00180983 0)
(1.00635 0.0021603 0)
(1.0071 0.00247897 0)
(1.00798 0.00305998 0)
(1.00895 0.003849 0)
(1.00997 0.00463614 0)
(1.01079 0.00545078 0)
(1.0113 0.00627107 0)
(1.01129 0.00708008 0)
(1.00025 -0.0001098 0)
(1.00005 -0.00110443 0)
(0.999071 0.000145633 0)
(1.00069 -0.00062356 0)
(1.00232 -0.000642653 0)
(1.00211 0.000398039 0)
(1.00266 0.000653066 0)
(1.0037 0.000699671 0)
(1.00428 0.00122791 0)
(1.00462 0.00146006 0)
(1.00518 0.00145384 0)
(1.00571 0.00184752 0)
(1.0064 0.00225543 0)
(1.00718 0.00258435 0)
(1.00813 0.00308212 0)
(1.00915 0.00380525 0)
(1.0102 0.00457059 0)
(1.01104 0.00534851 0)
(1.01157 0.00609932 0)
(1.01156 0.00682231 0)
(1.00022 -7.4834e-05 0)
(1.00009 -0.00116392 0)
(0.999114 0.000123376 0)
(1.00066 -0.000463727 0)
(1.00238 -0.000618274 0)
(1.00219 0.000475021 0)
(1.00266 0.000786516 0)
(1.00372 0.000749713 0)
(1.00432 0.00125573 0)
(1.00461 0.00156311 0)
(1.00519 0.00154591 0)
(1.00576 0.00187513 0)
(1.00646 0.0023246 0)
(1.00725 0.00268593 0)
(1.00826 0.003114 0)
(1.00935 0.00374901 0)
(1.01043 0.00447304 0)
(1.01128 0.00521977 0)
(1.01183 0.00591888 0)
(1.01182 0.0065669 0)
(1.00019 -3.85629e-05 0)
(1.00013 -0.00121553 0)
(0.999173 8.09571e-05 0)
(1.00063 -0.000291674 0)
(1.00244 -0.00056225 0)
(1.00228 0.000545468 0)
(1.00266 0.000937019 0)
(1.00373 0.000824476 0)
(1.00436 0.00127667 0)
(1.00461 0.0016622 0)
(1.00519 0.00165547 0)
(1.00582 0.001904 0)
(1.00653 0.00236602 0)
(1.00733 0.00277342 0)
(1.00839 0.00315892 0)
(1.00953 0.00369787 0)
(1.01066 0.00435566 0)
(1.01154 0.00506378 0)
(1.01208 0.00572254 0)
(1.01207 0.00630976 0)
(1.00016 -3.32506e-06 0)
(1.00017 -0.00124682 0)
(0.999251 3.77685e-05 0)
(1.00061 -9.96185e-05 0)
(1.00251 -0.000476651 0)
(1.00238 0.000602364 0)
(1.00267 0.00109053 0)
(1.00374 0.000924524 0)
(1.00442 0.0012954 0)
(1.00463 0.00174892 0)
(1.00518 0.00177953 0)
(1.00587 0.00194487 0)
(1.00663 0.00238298 0)
(1.00743 0.00283442 0)
(1.0085 0.00320872 0)
(1.0097 0.00366152 0)
(1.01088 0.00423275 0)
(1.01179 0.00488528 0)
(1.01233 0.00550595 0)
(1.0123 0.00604626 0)
(1.00013 2.98334e-05 0)
(1.00021 -0.00123355 0)
(0.999348 3.75437e-06 0)
(1.00061 8.56646e-05 0)
(1.00257 -0.000379457 0)
(1.0025 0.000637131 0)
(1.00269 0.00123918 0)
(1.00374 0.0010478 0)
(1.00448 0.00131798 0)
(1.00466 0.00181686 0)
(1.00518 0.00190564 0)
(1.00592 0.00200057 0)
(1.00673 0.00237863 0)
(1.00753 0.00285648 0)
(1.00861 0.00324145 0)
(1.00985 0.00363002 0)
(1.01109 0.00410746 0)
(1.01203 0.00468619 0)
(1.01258 0.00526276 0)
(1.01252 0.0057662 0)
(1.0001 5.3384e-05 0)
(1.00025 -0.00117659 0)
(0.999458 -1.69535e-05 0)
(1.0006 0.000260237 0)
(1.00262 -0.000271622 0)
(1.00263 0.000651347 0)
(1.00272 0.0013718 0)
(1.00372 0.00118446 0)
(1.00453 0.00134665 0)
(1.0047 0.00186847 0)
(1.00518 0.00202857 0)
(1.00595 0.002076 0)
(1.00682 0.00236943 0)
(1.00765 0.0028441 0)
(1.00872 0.00324794 0)
(1.00999 0.00359607 0)
(1.01128 0.00398546 0)
(1.01226 0.00447706 0)
(1.01282 0.00499729 0)
(1.01274 0.00546582 0)
(1.00008 8.61105e-05 0)
(1.00029 -0.00111142 0)
(0.999581 -2.44922e-05 0)
(1.00061 0.000430593 0)
(1.00265 -0.000140888 0)
(1.00277 0.000665601 0)
(1.00276 0.00149282 0)
(1.0037 0.0013396 0)
(1.00458 0.00139294 0)
(1.00476 0.00191236 0)
(1.00518 0.00214773 0)
(1.00597 0.00216891 0)
(1.00691 0.00236872 0)
(1.00777 0.00280409 0)
(1.00884 0.00322263 0)
(1.0101 0.0035505 0)
(1.01143 0.00386673 0)
(1.01246 0.004267 0)
(1.01305 0.00471785 0)
(1.01295 0.00514613 0)
(1.00006 0.000119083 0)
(1.00032 -0.0010246 0)
(0.999715 -2.86147e-05 0)
(1.00063 0.000590245 0)
(1.00268 1.52633e-05 0)
(1.00291 0.000686762 0)
(1.00282 0.00159753 0)
(1.00367 0.00150964 0)
(1.00461 0.00145771 0)
(1.00483 0.00194504 0)
(1.00519 0.00225522 0)
(1.00597 0.00227094 0)
(1.00697 0.00238072 0)
(1.00789 0.00274437 0)
(1.00896 0.00316118 0)
(1.01021 0.00348235 0)
(1.01156 0.00374401 0)
(1.01264 0.00405785 0)
(1.01325 0.00442957 0)
(1.01315 0.0048079 0)
(1.00004 0.000139727 0)
(1.00035 -0.000890776 0)
(0.999857 -2.43834e-05 0)
(1.00065 0.00073715 0)
(1.0027 0.000190262 0)
(1.00305 0.000713424 0)
(1.00289 0.00167867 0)
(1.00364 0.00168932 0)
(1.00464 0.00154491 0)
(1.0049 0.00196676 0)
(1.00521 0.00234525 0)
(1.00595 0.00238008 0)
(1.00701 0.00240912 0)
(1.008 0.00267946 0)
(1.00908 0.00306546 0)
(1.01031 0.00338381 0)
(1.01166 0.00360933 0)
(1.01278 0.00384909 0)
(1.01343 0.0041386 0)
(1.01333 0.00445717 0)
(1.00002 0.000162365 0)
(1.00037 -0.000734367 0)
(1 -8.10267e-07 0)
(1.00069 0.000869539 0)
(1.0027 0.000385668 0)
(1.00318 0.000763085 0)
(1.00298 0.00174877 0)
(1.0036 0.00187711 0)
(1.00463 0.00166144 0)
(1.00498 0.0019832 0)
(1.00524 0.0024064 0)
(1.00592 0.00248962 0)
(1.00702 0.0024512 0)
(1.00808 0.00261847 0)
(1.00919 0.00293958 0)
(1.0104 0.00324665 0)
(1.01174 0.00344961 0)
(1.01288 0.00363206 0)
(1.01357 0.00384421 0)
(1.01348 0.00409708 0)
(1.00001 0.000183791 0)
(1.00038 -0.000577786 0)
(1.00014 3.89616e-05 0)
(1.00073 0.000996605 0)
(1.00269 0.00059888 0)
(1.0033 0.000838648 0)
(1.00308 0.00181308 0)
(1.00356 0.00206331 0)
(1.0046 0.00181105 0)
(1.00504 0.0020104 0)
(1.00529 0.00244051 0)
(1.00589 0.00259363 0)
(1.00699 0.00251419 0)
(1.00812 0.00257476 0)
(1.00928 0.00280412 0)
(1.01048 0.00307792 0)
(1.0118 0.00326076 0)
(1.01295 0.00340042 0)
(1.01367 0.00354466 0)
(1.0136 0.00372967 0)
(0.999998 0.000206906 0)
(1.00039 -0.000425483 0)
(1.00028 9.64941e-05 0)
(1.00079 0.00111314 0)
(1.00267 0.000825479 0)
(1.00341 0.000937602 0)
(1.00319 0.00188153 0)
(1.00353 0.00224695 0)
(1.00455 0.00199612 0)
(1.00508 0.00206077 0)
(1.00534 0.0024545 0)
(1.00586 0.0026697 0)
(1.00693 0.00258956 0)
(1.00812 0.00254741 0)
(1.00933 0.00267184 0)
(1.01055 0.0028824 0)
(1.01185 0.00303801 0)
(1.01298 0.00314272 0)
(1.01372 0.00323067 0)
(1.01367 0.00335079 0)
(0.999991 0.000227937 0)
(1.0004 -0.000268373 0)
(1.00041 0.000174452 0)
(1.00086 0.00122778 0)
(1.00264 0.00106974 0)
(1.0035 0.00106848 0)
(1.00332 0.00194995 0)
(1.00351 0.00242093 0)
(1.00447 0.002203 0)
(1.00508 0.00213953 0)
(1.00538 0.00245773 0)
(1.00584 0.00270709 0)
(1.00685 0.00266068 0)
(1.00806 0.0025382 0)
(1.00934 0.00255246 0)
(1.01058 0.00267381 0)
(1.01187 0.00278753 0)
(1.01299 0.00285469 0)
(1.01373 0.00289478 0)
(1.0137 0.00295597 0)
(0.999987 0.000241822 0)
(1.00039 -9.58329e-05 0)
(1.00054 0.000270977 0)
(1.00094 0.00134656 0)
(1.00261 0.00131714 0)
(1.00356 0.00123848 0)
(1.00345 0.00201682 0)
(1.0035 0.00258748 0)
(1.00437 0.00242798 0)
(1.00505 0.00226454 0)
(1.00542 0.00246974 0)
(1.00582 0.00271958 0)
(1.00675 0.00270874 0)
(1.00796 0.00254355 0)
(1.00929 0.00244552 0)
(1.01057 0.00246615 0)
(1.01185 0.00251342 0)
(1.01295 0.002537 0)
(1.0137 0.00253093 0)
(1.01369 0.00253969 0)
(0.999986 0.000260687 0)
(1.00039 7.79561e-05 0)
(1.00066 0.00038095 0)
(1.00103 0.00145798 0)
(1.00257 0.00156637 0)
(1.0036 0.0014434 0)
(1.00357 0.00209785 0)
(1.00351 0.00273891 0)
(1.00425 0.00266577 0)
(1.00498 0.00243422 0)
(1.00542 0.00250797 0)
(1.00579 0.00271914 0)
(1.00664 0.00272674 0)
(1.00781 0.00254652 0)
(1.00918 0.00235087 0)
(1.01049 0.00226449 0)
(1.01179 0.0022243 0)
(1.01288 0.00219334 0)
(1.01362 0.0021395 0)
(1.01362 0.00209894 0)
(0.999987 0.0002743 0)
(1.00037 0.000264463 0)
(1.00077 0.00052334 0)
(1.00112 0.0015691 0)
(1.00254 0.00182241 0)
(1.00361 0.00168475 0)
(1.00369 0.00221193 0)
(1.00354 0.00287784 0)
(1.00413 0.00290967 0)
(1.00486 0.0026455 0)
(1.00538 0.00259156 0)
(1.00575 0.00272382 0)
(1.00651 0.00272779 0)
(1.00763 0.00253627 0)
(1.009 0.00226752 0)
(1.01035 0.00206954 0)
(1.01166 0.00193144 0)
(1.01276 0.00182832 0)
(1.0135 0.00172236 0)
(1.0135 0.00163112 0)
(0.99999 0.000287902 0)
(1.00036 0.000449027 0)
(1.00085 0.000685157 0)
(1.00122 0.00168831 0)
(1.0025 0.00207702 0)
(1.0036 0.00196245 0)
(1.00378 0.00236621 0)
(1.00357 0.00301916 0)
(1.00402 0.00314778 0)
(1.0047 0.00288919 0)
(1.00528 0.00272502 0)
(1.00567 0.00275177 0)
(1.00637 0.00272093 0)
(1.0074 0.00251236 0)
(1.00875 0.0021844 0)
(1.01012 0.00188207 0)
(1.01146 0.00163765 0)
(1.01257 0.00144761 0)
(1.01331 0.00127791 0)
(1.01332 0.00113302 0)
(0.999994 0.000310326 0)
(1.00034 0.000614325 0)
(1.00092 0.000857708 0)
(1.00132 0.00181623 0)
(1.00247 0.00233424 0)
(1.00356 0.00226773 0)
(1.00385 0.00256103 0)
(1.00361 0.00317153 0)
(1.0039 0.00337929 0)
(1.00451 0.00315312 0)
(1.00512 0.00290405 0)
(1.00555 0.0028161 0)
(1.00619 0.00271893 0)
(1.00714 0.0024778 0)
(1.00843 0.0020954 0)
(1.00981 0.001696 0)
(1.01117 0.00133874 0)
(1.0123 0.00104914 0)
(1.01305 0.000798449 0)
(1.01308 0.000592202 0)
(0.999999 0.000331098 0)
(1.00032 0.000778127 0)
(1.00097 0.00105553 0)
(1.00142 0.00196204 0)
(1.00246 0.00258359 0)
(1.0035 0.00259836 0)
(1.00388 0.00279652 0)
(1.00364 0.00334596 0)
(1.00379 0.00361373 0)
(1.00429 0.00343597 0)
(1.00491 0.00312974 0)
(1.00536 0.00292458 0)
(1.00596 0.00274031 0)
(1.00682 0.00244039 0)
(1.00804 0.00200245 0)
(1.00939 0.00150317 0)
(1.01077 0.00103053 0)
(1.01192 0.000622101 0)
(1.0127 0.000277757 0)
(1.01275 -3.41438e-06 0)
(1 0.000354737 0)
(1.0003 0.000938925 0)
(1.00101 0.00127099 0)
(1.00151 0.00211882 0)
(1.00245 0.00282285 0)
(1.00342 0.00293596 0)
(1.00387 0.00308311 0)
(1.00366 0.00354929 0)
(1.00369 0.00385957 0)
(1.00406 0.00374338 0)
(1.00464 0.00340258 0)
(1.00509 0.00309624 0)
(1.00567 0.00280272 0)
(1.00644 0.00242719 0)
(1.00757 0.00191136 0)
(1.00887 0.00131282 0)
(1.01025 0.000707082 0)
(1.01142 0.000163205 0)
(1.01224 -0.00030377 0)
(1.01232 -0.000689914 0)
(1.00001 0.000389873 0)