/*--------------------------------*- C++ -*----------------------------------*\
| =========                 |                                                 |
| \\      /  F ield         | OpenFOAM: The Open Source CFD Toolbox           |
|  \\    /   O peration     | Version:  v2012                                 |
|   \\  /    A nd           | Website:  www.openfoam.com                      |
|    \\/     M anipulation  |                                                 |
\*---------------------------------------------------------------------------*/
FoamFile
{
    version     2.0;
    format      ascii;
    class       volScalarField;
    location    "5";
    object      p;
}
// * * * * * * * * * * * * * * * * * * * * * * * * * * * * * * * * * * * * * //

dimensions      [0 2 -2 0 0 0 0];


internalField   nonuniform List<scalar> 
17600
(
3.94628e-11
0.000218717
-0.000705345
-0.000877073
-0.000845837
-0.00143375
-0.00191406
-0.00226539
-0.00274728
-0.00315735
-0.00324552
-0.00345333
-0.00337916
-0.00376419
-0.00322115
-0.0031431
-0.00189497
-0.000838445
0.00153427
0.00524201
1.21602e-06
0.000218749
-0.000704749
-0.000879855
-0.000845637
-0.00143564
-0.00191357
-0.00226729
-0.00274643
-0.00316002
-0.00324412
-0.0034575
-0.0033768
-0.00377251
-0.00321668
-0.00316069
-0.0018843
-0.000879358
0.00155753
0.00499701
3.38355e-06
0.000218421
-0.000704624
-0.000883691
-0.00084508
-0.00143849
-0.0019127
-0.00227008
-0.00274522
-0.0031642
-0.00324245
-0.00346413
-0.00337494
-0.0037855
-0.00321354
-0.00318588
-0.00187342
-0.000934055
0.00156905
0.00459249
6.50951e-06
0.000217943
-0.00070557
-0.000887308
-0.000844461
-0.00144161
-0.00191184
-0.00227296
-0.00274421
-0.00316888
-0.00324135
-0.0034716
-0.00337476
-0.00379973
-0.00321362
-0.00321012
-0.00186903
-0.000982593
0.00154396
0.0041931
1.10738e-05
0.000217265
-0.000707642
-0.000890772
-0.000843896
-0.00144501
-0.001911
-0.00227593
-0.00274331
-0.00317405
-0.00324039
-0.00347976
-0.00337479
-0.00381503
-0.00321379
-0.0032344
-0.00186815
-0.00102827
0.00148078
0.00382161
1.72724e-05
0.00021612
-0.000710798
-0.000894339
-0.000843357
-0.00144871
-0.00191006
-0.00227904
-0.00274235
-0.00317964
-0.00323919
-0.0034884
-0.00337448
-0.00383121
-0.00321368
-0.00325961
-0.00187032
-0.00107542
0.00138267
0.00347997
2.49121e-05
0.000214325
-0.00071485
-0.000897985
-0.000842755
-0.00145265
-0.00190891
-0.00228225
-0.00274123
-0.00318557
-0.0032377
-0.00349738
-0.00337416
-0.00384794
-0.00321485
-0.00328466
-0.00187883
-0.00112434
0.00125232
0.00315788
3.36297e-05
0.000211877
-0.000719505
-0.000901788
-0.00084199
-0.00145676
-0.00190755
-0.00228557
-0.00273997
-0.00319184
-0.003236
-0.00350675
-0.00337418
-0.00386512
-0.00321857
-0.00330834
-0.00189736
-0.00117349
0.00109119
0.00284672
4.31033e-05
0.00020889
-0.000724504
-0.000905807
-0.000840992
-0.00146103
-0.00190598
-0.00228905
-0.00273864
-0.00319849
-0.00323422
-0.0035165
-0.00337484
-0.00388252
-0.00322567
-0.00332996
-0.0019281
-0.00122222
0.000900888
0.0025392
5.31377e-05
0.000205495
-0.000729675
-0.00091009
-0.000839736
-0.00146548
-0.00190424
-0.00229271
-0.00273729
-0.00320549
-0.00323244
-0.00352653
-0.00337651
-0.00389964
-0.00323715
-0.00334898
-0.00197217
-0.00127138
0.000684399
0.00222915
6.36532e-05
0.000201798
-0.000734924
-0.000914675
-0.000838227
-0.00147011
-0.00190237
-0.00229657
-0.00273597
-0.0032128
-0.0032308
-0.0035366
-0.00337968
-0.00391586
-0.00325408
-0.00336507
-0.00203025
-0.0013228
0.000446407
0.00191165
7.464e-05
0.000197863
-0.000740192
-0.00091959
-0.000836482
-0.00147491
-0.00190041
-0.00230061
-0.00273474
-0.00322029
-0.0032295
-0.00354639
-0.00338495
-0.00393055
-0.00327743
-0.00337827
-0.00210268
-0.00137981
0.000192959
0.00158338
8.61164e-05
0.00019372
-0.00074544
-0.000924858
-0.000834515
-0.00147985
-0.00189839
-0.00230479
-0.0027337
-0.00322779
-0.00322881
-0.00355548
-0.00339297
-0.00394317
-0.00330799
-0.00338905
-0.00218926
-0.00144692
-6.9714e-05
0.00124286
9.81056e-05
0.000189383
-0.000750629
-0.000930495
-0.000832343
-0.00148487
-0.00189637
-0.00230904
-0.00273295
-0.00323509
-0.00322905
-0.00356347
-0.00340431
-0.0039535
-0.00334616
-0.00339868
-0.00228873
-0.00152813
-0.00033676
0.000890354
0.000110626
0.000184861
-0.000755724
-0.000936505
-0.000829989
-0.00148994
-0.00189441
-0.00231328
-0.00273268
-0.00324192
-0.00323059
-0.00356999
-0.00341937
-0.0039616
-0.00339173
-0.00340946
-0.00239896
-0.00162645
-0.000605314
0.000527359
0.000123685
0.00018017
-0.000760691
-0.000942884
-0.000827487
-0.00149499
-0.00189263
-0.00231734
-0.00273312
-0.00324797
-0.00323379
-0.0035748
-0.00343846
-0.0039679
-0.0034441
-0.0034241
-0.0025176
-0.00174403
-0.000874378
0.000156118
0.000137282
0.00017534
-0.000765497
-0.000949615
-0.000824891
-0.00149992
-0.00189116
-0.002321
-0.0027345
-0.00325297
-0.00323891
-0.00357775
-0.00346165
-0.00397314
-0.0035025
-0.00344531
-0.00264283
-0.00188213
-0.00114427
-0.000220792
0.000151403
0.000170418
-0.000770105
-0.000956661
-0.000822285
-0.0015046
-0.00189021
-0.00232408
-0.00273706
-0.00325669
-0.00324618
-0.00357886
-0.00348873
-0.00397846
-0.00356611
-0.00347606
-0.0027737
-0.00204045
-0.00141598
-0.000600803
0.000166023
0.000165471
-0.000774494
-0.000963963
-0.000819772
-0.00150889
-0.00188997
-0.00232635
-0.00274101
-0.00325896
-0.00325566
-0.0035785
-0.00351908
-0.00398544
-0.00363405
-0.00351798
-0.00291008
-0.00221772
-0.00169081
-0.000981672
0.000181097
0.000160589
-0.000778657
-0.000971431
-0.000817495
-0.00151258
-0.00189067
-0.00232759
-0.00274653
-0.00325969
-0.0032672
-0.00357727
-0.00355181
-0.00399583
-0.0037056
-0.00357213
-0.00305271
-0.00241249
-0.00196994
-0.00136166
0.000196561
0.000155898
-0.0007826
-0.000978932
-0.000815639
-0.00151548
-0.00189253
-0.00232762
-0.00275366
-0.00325902
-0.00328044
-0.00357591
-0.0035861
-0.00401094
-0.00378052
-0.00363946
-0.00320311
-0.00262355
-0.00225413
-0.00173939
0.000212323
0.000151579
-0.000786346
-0.000986325
-0.000814379
-0.0015174
-0.00189575
-0.00232634
-0.00276224
-0.00325736
-0.00329478
-0.00357527
-0.00362131
-0.00403162
-0.00385927
-0.00372077
-0.00336324
-0.00285032
-0.00254381
-0.00211375
0.000228255
0.000147867
-0.000789943
-0.000993463
-0.000813871
-0.00151819
-0.00190049
-0.00232379
-0.00277191
-0.00325528
-0.0033095
-0.00357608
-0.0036572
-0.00405793
-0.0039427
-0.00381661
-0.00353517
-0.00309303
-0.00283958
-0.00248397
0.000244189
0.000145062
-0.000793441
-0.00100022
-0.000814305
-0.00151773
-0.00190675
-0.00232021
-0.00278217
-0.00325334
-0.00332399
-0.00357873
-0.00369372
-0.00408991
-0.00403135
-0.00392702
-0.00372087
-0.0033529
-0.00314345
-0.00285041
0.000259959
0.000143542
-0.000796879
-0.00100648
-0.000815812
-0.0015161
-0.00191432
-0.00231605
-0.00279236
-0.00325221
-0.00333771
-0.00358335
-0.00373067
-0.00412767
-0.00412535
-0.00405108
-0.00392162
-0.00363288
-0.00346189
-0.00321641
0.000275345
0.000143712
-0.000800304
-0.00101215
-0.00081841
-0.00151349
-0.00192284
-0.00231197
-0.00280176
-0.00325242
-0.00335022
-0.00358969
-0.00376802
-0.00417101
-0.00422431
-0.00418438
-0.00413062
-0.00393426
-0.00381133
-0.00359019
0.000290006
0.000146035
-0.000803649
-0.00101729
-0.000822032
-0.0015102
-0.00193169
-0.00230855
-0.00280973
-0.00325426
-0.00336162
-0.00359715
-0.00380648
-0.0042185
-0.00432757
-0.00432569
-0.00434543
-0.00424451
-0.00417088
-0.00400957
0.000303621
0.000151036
-0.000806749
-0.00102207
-0.000826395
-0.001507
-0.00194006
-0.00230674
-0.00281467
-0.00325906
-0.00337277
-0.00360536
-0.00384648
-0.0042701
-0.00443641
-0.00448623
-0.00457895
-0.00456669
-0.00454706
-0.00443152
0.000315841
0.000159152
-0.000809324
-0.00102667
-0.000831026
-0.00150467
-0.0019476
-0.00230802
-0.00281868
-0.00326223
-0.00338525
-0.00361396
-0.00389033
-0.00433772
-0.00456018
-0.00466021
-0.00482045
-0.00489837
-0.00493654
-0.00485185
0.000326237
0.000170737
-0.000810824
-0.00103155
-0.000835217
-0.00150396
-0.001954
-0.00231156
-0.00282206
-0.00326492
-0.00340133
-0.00363091
-0.00394247
-0.00441733
-0.00469401
-0.00484189
-0.00506414
-0.00523415
-0.0053342
-0.00527152
0.000334467
0.000186199
-0.000810626
-0.00103742
-0.000838246
-0.0015053
-0.00195927
-0.00231422
-0.00282632
-0.00326884
-0.00342398
-0.00365883
-0.00399861
-0.00450222
-0.00483559
-0.00503178
-0.0053097
-0.00557009
-0.00573677
-0.00569225
0.000340222
0.000205859
-0.000813564
-0.00104515
-0.00083961
-0.00150876
-0.00196488
-0.00231642
-0.00283446
-0.00327798
-0.0034522
-0.00369315
-0.00405675
-0.00458941
-0.00498387
-0.00523279
-0.00556028
-0.00590372
-0.00613959
-0.00611379
0.000343269
0.00022973
-0.000807766
-0.00105543
-0.000839179
-0.00151416
-0.00197238
-0.00231838
-0.0028491
-0.0032937
-0.0034819
-0.00373224
-0.00411782
-0.00467827
-0.00513686
-0.00544579
-0.00581921
-0.00623445
-0.00653687
-0.00653299
0.000343516
0.000257244
-0.000795405
-0.00106837
-0.00083748
-0.00152065
-0.00198462
-0.00232247
-0.00287126
-0.0033134
-0.00351029
-0.00377493
-0.00418386
-0.00476976
-0.0052923
-0.00566888
-0.00608853
-0.0065628
-0.00692463
-0.00694574
0.000340977
0.000287354
-0.000775426
-0.00108326
-0.000835528
-0.0015281
-0.00200366
-0.00233354
-0.00289842
-0.00333654
-0.00353567
-0.00381947
-0.00425659
-0.0048658
-0.00544817
-0.00589854
-0.00636838
-0.00689015
-0.00730161
-0.00734824
0.00033588
0.000318793
-0.000746943
-0.00109895
-0.000834463
-0.00153738
-0.00203544
-0.00234891
-0.00292662
-0.00336349
-0.00355865
-0.00386435
-0.00433702
-0.00496847
-0.00560315
-0.00613051
-0.00665668
-0.0072189
-0.00766913
-0.00773801
0.000328643
0.000350416
-0.000708938
-0.00111475
-0.000836177
-0.00154873
-0.00207626
-0.00236734
-0.00295383
-0.00339601
-0.00358203
-0.00390838
-0.00442479
-0.00507982
-0.00575725
-0.00636037
-0.0069499
-0.00755133
-0.00803042
-0.0081146
0.000319783
0.000381206
-0.000661885
-0.00113003
-0.000842201
-0.00156118
-0.00212536
-0.00238985
-0.00297918
-0.0034348
-0.00360868
-0.00394989
-0.00451721
-0.00520169
-0.00591256
-0.00658469
-0.00724353
-0.00788798
-0.00838891
-0.00847916
0.000310003
0.000410164
-0.000607113
-0.00114398
-0.000853278
-0.0015736
-0.00218215
-0.00241817
-0.00300141
-0.00347898
-0.00364131
-0.00398806
-0.00461042
-0.00533492
-0.00607309
-0.00680205
-0.00753203
-0.00822603
-0.00874633
-0.00883377
0.000300016
0.000436408
-0.000545333
-0.00115587
-0.000869454
-0.00158533
-0.00224602
-0.00245404
-0.00301924
-0.00352652
-0.00368305
-0.00402442
-0.00470041
-0.0054778
-0.00624302
-0.00701444
-0.00781053
-0.00855988
-0.00910181
-0.00918063
0.000290563
0.00045908
-0.000481778
-0.00116499
-0.000890957
-0.0015964
-0.00231551
-0.00249887
-0.00303227
-0.00357466
-0.00373619
-0.00406199
-0.00478392
-0.00562632
-0.00642466
-0.00722649
-0.00807692
-0.00888337
-0.00945235
-0.00952135
0.000282484
0.000477553
-0.000419297
-0.00117061
-0.000918021
-0.00160772
-0.00238849
-0.00255369
-0.00304146
-0.00362005
-0.00380095
-0.00410424
-0.00485922
-0.00577488
-0.00661707
-0.00744186
-0.00833178
-0.00919164
-0.00979376
-0.00985649
0.000275983
0.000491786
-0.000357744
-0.00117344
-0.00095104
-0.0016207
-0.0024609
-0.00261798
-0.00304897
-0.00365992
-0.0038764
-0.00415563
-0.00492683
-0.00591735
-0.00681632
-0.00766278
-0.00857739
-0.00948171
-0.0101211
-0.0101847
0.000272429
0.000502005
-0.000298349
-0.00117644
-0.000993032
-0.00163353
-0.00252818
-0.00269015
-0.00305758
-0.00369191
-0.00395985
-0.00422081
-0.00498985
-0.00604868
-0.00701673
-0.00788994
-0.00881722
-0.00975314
-0.0104299
-0.0105024
0.000273829
0.000511365
-0.000241819
-0.00118746
-0.00105852
-0.00164197
-0.00257963
-0.00276909
-0.00307053
-0.0037137
-0.00404639
-0.00430178
-0.00505265
-0.00616579
-0.00721208
-0.00812214
-0.00905499
-0.0100079
-0.0107169
-0.0108047
0.000281764
0.000524167
-0.00018975
-0.00122105
-0.00114934
-0.00164436
-0.00261129
-0.00285204
-0.0030909
-0.00372522
-0.00412954
-0.00439713
-0.00511974
-0.00626808
-0.0073963
-0.00835541
-0.00929267
-0.0102487
-0.0109803
-0.0110862
0.000295538
0.000535078
-0.000151963
-0.0012539
-0.00124902
-0.00165167
-0.00262761
-0.00293532
-0.00312188
-0.00372952
-0.0042048
-0.00450321
-0.00519512
-0.00635853
-0.00756423
-0.00858397
-0.00953084
-0.0104798
-0.0112213
-0.0113434
0.000304461
0.000530236
-0.000107408
-0.00126501
-0.00135659
-0.00167855
-0.00263962
-0.00301878
-0.00316828
-0.00373132
-0.00426897
-0.00461448
-0.00528069
-0.00644099
-0.00771123
-0.00879985
-0.00976711
-0.010705
-0.0114439
-0.0115764
0.000310456
0.000499566
-6.1423e-05
-0.00125585
-0.00147017
-0.00172163
-0.00264397
-0.0030983
-0.00322969
-0.00373448
-0.00431693
-0.00472384
-0.00537741
-0.00652051
-0.00783682
-0.00899537
-0.00999451
-0.0109236
-0.0116507
-0.0117857
0.000327587
0.000520564
-5.62704e-05
-0.00129105
-0.00158408
-0.00176893
-0.00263382
-0.00316475
-0.0033015
-0.00374179
-0.00434705
-0.00482376
-0.00548374
-0.00660223
-0.00794371
-0.00916577
-0.010205
-0.0111314
-0.011842
-0.0119717
0.00034358
0.000489529
-5.60546e-05
-0.00130641
-0.00169675
-0.00183021
-0.0026208
-0.00321952
-0.00338195
-0.00375788
-0.00436334
-0.00490806
-0.00559086
-0.00668482
-0.00803377
-0.00930837
-0.0103925
-0.0113252
-0.0120198
-0.0121385
0.000346518
0.000458344
-4.99705e-05
-0.00130494
-0.00181178
-0.00191409
-0.00261384
-0.00326118
-0.00346687
-0.00378729
-0.00437162
-0.00497381
-0.00569025
-0.00676576
-0.00811084
-0.00942519
-0.0105546
-0.0115015
-0.0121839
-0.0122884
0.000341405
0.000417086
-4.65601e-05
-0.0012948
-0.00192706
-0.00201954
-0.002615
-0.00328658
-0.00354973
-0.00383003
-0.00437609
-0.0050166
-0.00577299
-0.00684069
-0.00817634
-0.00951824
-0.0106896
-0.0116553
-0.0123292
-0.0124185
0.000336649
0.000370203
-6.95615e-05
-0.00129026
-0.00203116
-0.00214112
-0.0026282
-0.00329456
-0.00362108
-0.00388223
-0.00437974
-0.00503483
-0.00583049
-0.00690214
-0.00822884
-0.00958858
-0.0107955
-0.0117813
-0.01245
-0.0125246
0.000330756
0.000328076
-0.000122667
-0.00129265
-0.00212244
-0.00227363
-0.00265543
-0.00328868
-0.00367487
-0.00393851
-0.00438708
-0.00503404
-0.00585864
-0.00694175
-0.00826337
-0.00963429
-0.0108693
-0.0118742
-0.0125407
-0.0126026
0.000310167
0.000257796
-0.000183857
-0.00129739
-0.00220236
-0.00241349
-0.00270248
-0.00327651
-0.00370871
-0.0039921
-0.00439929
-0.00501959
-0.00585589
-0.00695097
-0.00827175
-0.00965048
-0.0109072
-0.0119299
-0.0125977
-0.0126503
0.000277752
0.00018166
-0.000254862
-0.00131022
-0.00227357
-0.00255663
-0.00277142
-0.00326567
-0.00372134
-0.00403398
-0.00441189
-0.00499435
-0.00582351
-0.00692417
-0.0082456
-0.00963032
-0.0109043
-0.0119437
-0.0126173
-0.0126657
0.000223779
0.000121994
-0.000334231
-0.00133215
-0.00233764
-0.00269872
-0.00285973
-0.00326185
-0.00371388
-0.00405586
-0.00441756
-0.00495873
-0.00576298
-0.00685608
-0.00817527
-0.00956498
-0.0108544
-0.0119119
-0.012595
-0.0126448
0.000146762
-1.41799e-05
-0.000411335
-0.0013641
-0.0023964
-0.00283246
-0.002962
-0.00326743
-0.00368953
-0.00405204
-0.00440838
-0.00491007
-0.00567396
-0.00674143
-0.00804983
-0.00944374
-0.0107504
-0.0118289
-0.0125257
-0.0125808
8.09527e-05
-6.95804e-05
-0.000565795
-0.00145038
-0.00245459
-0.0029538
-0.00307209
-0.00328396
-0.00365425
-0.00402271
-0.00437665
-0.00484042
-0.00555128
-0.00657431
-0.00785878
-0.00925311
-0.0105787
-0.0116822
-0.012399
-0.0124648
-1.41817e-05
-0.000213515
-0.000717986
-0.0015528
-0.00251497
-0.00306097
-0.00318504
-0.00331442
-0.00361414
-0.00396722
-0.00431265
-0.00473823
-0.00538774
-0.006351
-0.00759745
-0.00898352
-0.0103268
-0.0114579
-0.012203
-0.0122901
-0.000147198
-0.000336548
-0.000878454
-0.00167017
-0.00258376
-0.00315847
-0.00330101
-0.00336384
-0.00357716
-0.00388716
-0.00421003
-0.0045943
-0.00517746
-0.00606766
-0.0072588
-0.00862209
-0.00997596
-0.0111388
-0.0119121
-0.0120266
-0.000313059
-0.000520034
-0.00103512
-0.00180172
-0.0026654
-0.0032527
-0.00342203
-0.0034355
-0.00355062
-0.00378576
-0.00406483
-0.0043999
-0.0049078
-0.00570879
-0.00682037
-0.00814009
-0.00949041
-0.0106791
-0.0114937
-0.0116553
-0.000500361
-0.000690312
-0.00123995
-0.00196553
-0.00276279
-0.00334967
-0.00355283
-0.00353368
-0.00354377
-0.00367136
-0.00387666
-0.00414625
-0.00456618
-0.00525377
-0.0062537
-0.00749684
-0.0088248
-0.0100402
-0.0109129
-0.0111473
-0.00071868
-0.000902387
-0.00144726
-0.00214075
-0.0028714
-0.00345251
-0.00370056
-0.00366202
-0.00357278
-0.00357074
-0.0036629
-0.00383379
-0.00413873
-0.00468398
-0.00553348
-0.00665976
-0.00793954
-0.00917491
-0.0101194
-0.0104595
-0.00102277
-0.00114873
-0.00165572
-0.00226668
-0.00294019
-0.00356176
-0.00386931
-0.00381933
-0.00363881
-0.00350697
-0.00345096
-0.00347182
-0.00361193
-0.00396999
-0.00462264
-0.00557656
-0.00676338
-0.00799263
-0.00902434
-0.00952335
-0.0014012
-0.00161452
-0.00191163
-0.00233911
-0.00295254
-0.00368177
-0.00401922
-0.00395149
-0.00371568
-0.00348517
-0.00328027
-0.00308845
-0.00297387
-0.00303914
-0.00341324
-0.00413363
-0.0051217
-0.00628496
-0.00742744
-0.00818699
-0.00166128
-0.00173881
-0.00223034
-0.00280659
-0.00336838
-0.00387199
-0.00412462
-0.00403348
-0.00376498
-0.0035048
-0.00322988
-0.0028319
-0.00231222
-0.00185955
-0.00170253
-0.00194637
-0.00256171
-0.00343083
-0.00441747
-0.00533895
-0.0020025
-0.00212359
-0.00262517
-0.00322372
-0.00371591
-0.00404666
-0.00419568
-0.00409395
-0.00377997
-0.00345709
-0.00331986
-0.00304619
-0.00217468
-0.0011203
-0.000420309
-0.000172319
-0.000152458
-0.000104956
0.000107959
0.000393599
-0.00245853
-0.00260847
-0.00303242
-0.00357421
-0.00398694
-0.00419575
-0.00423001
-0.00414633
-0.00385185
-0.00303329
-0.00208902
-0.00127571
-0.000577704
4.40306e-05
0.000614706
0.00119722
0.00184291
0.00255632
0.0031997
0.00342012
-0.00299681
-0.00311473
-0.00350077
-0.00391818
-0.00417104
-0.00430978
-0.00420502
-0.00357477
-0.00276839
-0.00201452
-0.00139483
-0.000877098
-0.000339225
0.000348123
0.00123411
0.00224093
0.00326959
0.00420363
0.00485181
0.00489132
-0.00366479
-0.00368754
-0.0039892
-0.00425222
-0.00414632
-0.00376747
-0.00332879
-0.00285006
-0.00234866
-0.00184878
-0.00131278
-0.000693795
6.74764e-05
0.00100906
0.0021031
0.00327782
0.00443616
0.0054311
0.00604608
0.00596339
-0.00447664
-0.00452908
-0.00427874
-0.00397102
-0.00363373
-0.00328618
-0.0029597
-0.00263561
-0.00223236
-0.0017111
-0.00105967
-0.00027126
0.000657131
0.00172054
0.00289308
0.00412231
0.00530503
0.00629157
0.00686455
0.00670481
-0.00514002
-0.00504238
-0.0045185
-0.00389754
-0.00339369
-0.00302192
-0.00271864
-0.00240487
-0.00198876
-0.00141218
-0.000676597
0.000199755
0.00120329
0.00231779
0.00352305
0.00476548
0.00594755
0.00691934
0.00745935
0.00724541
-0.00564829
-0.0054542
-0.0048097
-0.00400976
-0.00331566
-0.00281267
-0.00244506
-0.00209201
-0.00164978
-0.0010578
-0.00030225
0.000605561
0.00164325
0.00279375
0.00402415
0.00527684
0.00645511
0.00740968
0.00791837
0.00765899
-0.00608803
-0.00582166
-0.00507494
-0.00412927
-0.00327179
-0.0026317
-0.00216962
-0.00177041
-0.00131711
-0.000727797
3.03811e-05
0.000951707
0.00201472
0.00319095
0.00443912
0.00569676
0.00686662
0.00780075
0.00827869
0.00798012
-0.00646254
-0.00614607
-0.00529158
-0.00422945
-0.00324489
-0.00248717
-0.00194067
-0.001496
-0.00102735
-0.000439527
0.000315575
0.00124381
0.00232325
0.00351687
0.00477646
0.00603512
0.00719481
0.00810917
0.00856023
0.00823003
-0.00675745
-0.00638906
-0.00547498
-0.0043232
-0.00323764
-0.00238526
-0.00176652
-0.00127751
-0.000788167
-0.000195128
0.000558796
0.00148705
0.00257135
0.00377417
0.0050401
0.00629804
0.00744875
0.00834704
0.00877704
0.00842301
-0.00697873
-0.00658336
-0.00561883
-0.00440713
-0.00325281
-0.00233256
-0.00165656
-0.00112402
-0.000603804
1.02626e-05
0.000776856
0.0017117
0.00279868
0.00400027
0.00526315
0.00651556
0.00765662
0.00854129
0.00895498
0.00858321
-0.0071183
-0.00671412
-0.00572748
-0.00448464
-0.00329462
-0.0023377
-0.00162707
-0.00106252
-0.000515603
0.000119427
0.000905042
0.00185874
0.0029625
0.00417604
0.00544333
0.00669184
0.00782377
0.00869794
0.0091029
0.00872474
0.0103326
0.00503453
-0.00263683
-0.00794383
-0.00915632
-0.0080233
-0.0065725
-0.00555549
-0.00500401
-0.00476389
-0.00470144
-0.00474214
-0.00484837
-0.00499522
-0.00516239
-0.00533575
-0.00550747
-0.00567416
-0.00583489
-0.0059894
-0.00613643
-0.00627469
-0.00640463
-0.00652898
-0.00665079
-0.0067719
-0.00689275
-0.00701322
-0.00713305
-0.00725274
-0.00737319
-0.00749506
-0.00761794
-0.00774076
-0.0078626
-0.00798325
-0.0081028
-0.00822107
-0.0083374
-0.00845116
-0.0085623
-0.00867102
-0.00877763
-0.00888234
-0.00898543
-0.00908687
-0.00918659
-0.00928476
-0.00938202
-0.00947889
-0.00957547
-0.00967137
-0.0097665
-0.00986099
-0.00995522
-0.0100494
-0.0101435
-0.0102373
-0.0103306
-0.0104239
-0.0105171
-0.0106103
-0.0107032
-0.0107959
-0.0108884
-0.0109811
-0.0110737
-0.0111663
-0.0112586
-0.0113508
-0.0114431
-0.0115358
-0.0116285
-0.0117213
-0.011814
-0.0119067
-0.0119997
-0.0120927
-0.0121858
-0.0122789
-0.0123721
-0.0124654
-0.0125589
-0.0126524
-0.0127461
-0.0128401
-0.0129346
-0.0130294
-0.0131245
-0.0132199
-0.0133159
-0.0134125
-0.0135098
-0.0136074
-0.0137055
-0.0138043
-0.0139035
-0.0140032
-0.0141034
-0.0142041
-0.0143052
-0.0144069
-0.0145087
-0.0146112
-0.0147139
-0.0148174
-0.0149211
-0.0150254
-0.01513
-0.0152351
-0.0153406
-0.0154466
-0.015553
-0.0156598
-0.0157671
-0.0158747
-0.0159831
-0.0160918
-0.0162014
-0.0163112
-0.0164218
-0.0165328
-0.0166447
-0.0167571
-0.01687
-0.0169836
-0.0170975
-0.0172123
-0.0173273
-0.0174434
-0.0175596
-0.0176768
-0.0177941
-0.0179125
-0.0180312
-0.0181507
-0.0182707
-0.0183912
-0.0185127
-0.0186344
-0.0187575
-0.0188804
-0.0190047
-0.0191288
-0.0192546
-0.0193806
-0.0195072
-0.0196345
-0.0197622
-0.0198915
-0.0200204
-0.0201511
-0.0202811
-0.0204133
-0.0205455
-0.0206788
-0.0208126
-0.0209468
-0.0210829
-0.0212185
-0.0213561
-0.0214927
-0.021632
-0.021771
-0.0219112
-0.022052
-0.0221929
-0.0223365
-0.0224785
-0.0226236
-0.0227672
-0.0229139
-0.0230604
-0.0232075
-0.0233568
-0.0235048
-0.0236569
-0.0238063
-0.0239593
-0.0241116
-0.0242648
-0.0244207
-0.0245736
-0.0247325
-0.0248869
-0.025047
-0.0252046
-0.0253639
-0.025526
-0.0256845
-0.0258488
-0.0260086
-0.0261718
-0.0263357
-0.0264941
-0.0266608
-0.0268132
-0.0269758
-0.0271094
-0.0272398
0.00947782
0.00484482
-0.00255881
-0.00781265
-0.00907771
-0.00798548
-0.0065486
-0.00553842
-0.00499158
-0.00475435
-0.00469366
-0.00473548
-0.00484253
-0.00499001
-0.00515772
-0.00533152
-0.00550363
-0.00567066
-0.00583169
-0.00598648
-0.00613377
-0.00627225
-0.00640238
-0.00652691
-0.00664887
-0.0067701
-0.00689108
-0.00701165
-0.00713158
-0.00725135
-0.00737187
-0.0074938
-0.00761675
-0.00773963
-0.00786152
-0.00798221
-0.00810181
-0.00822012
-0.00833649
-0.0084503
-0.00856147
-0.00867022
-0.00877686
-0.00888161
-0.00898472
-0.00908619
-0.00918594
-0.00928413
-0.00938141
-0.0094783
-0.00957491
-0.00967083
-0.00976597
-0.00986048
-0.00995473
-0.010049
-0.0101431
-0.0102368
-0.0103302
-0.0104234
-0.0105167
-0.0106099
-0.0107028
-0.0107955
-0.010888
-0.0109807
-0.0110734
-0.011166
-0.0112583
-0.0113505
-0.0114428
-0.0115355
-0.0116282
-0.011721
-0.0118137
-0.0119065
-0.0119994
-0.0120925
-0.0121856
-0.0122787
-0.0123719
-0.0124652
-0.0125587
-0.0126522
-0.0127459
-0.0128399
-0.0129344
-0.0130292
-0.0131244
-0.0132197
-0.0133158
-0.0134124
-0.0135096
-0.0136072
-0.0137054
-0.0138041
-0.0139034
-0.0140031
-0.0141033
-0.014204
-0.0143051
-0.0144067
-0.0145086
-0.014611
-0.0147138
-0.0148173
-0.014921
-0.0150253
-0.0151298
-0.015235
-0.0153405
-0.0154465
-0.0155529
-0.0156597
-0.015767
-0.0158746
-0.015983
-0.0160917
-0.0162013
-0.0163111
-0.0164217
-0.0165327
-0.0166446
-0.016757
-0.01687
-0.0169835
-0.0170974
-0.0172122
-0.0173273
-0.0174434
-0.0175595
-0.0176767
-0.017794
-0.0179124
-0.0180311
-0.0181507
-0.0182707
-0.0183912
-0.0185127
-0.0186343
-0.0187574
-0.0188803
-0.0190046
-0.0191288
-0.0192545
-0.0193805
-0.0195072
-0.0196345
-0.0197621
-0.0198914
-0.0200204
-0.020151
-0.0202811
-0.0204132
-0.0205454
-0.0206788
-0.0208125
-0.0209467
-0.0210828
-0.0212184
-0.0213561
-0.0214927
-0.0216319
-0.021771
-0.0219111
-0.022052
-0.0221928
-0.0223364
-0.0224784
-0.0226236
-0.0227672
-0.0229139
-0.0230604
-0.0232075
-0.0233568
-0.0235048
-0.0236569
-0.0238063
-0.0239593
-0.0241116
-0.0242648
-0.0244207
-0.0245736
-0.0247325
-0.0248869
-0.0250469
-0.0252045
-0.0253639
-0.0255259
-0.0256845
-0.0258488
-0.0260086
-0.0261718
-0.0263356
-0.0264941
-0.0266608
-0.0268132
-0.0269757
-0.0271094
-0.0272398
0.00860209
0.00466405
-0.00237963
-0.00756121
-0.00893412
-0.00792794
-0.00651765
-0.00551491
-0.00497321
-0.00474033
-0.00468285
-0.0047269
-0.00483547
-0.00498402
-0.00515247
-0.00532686
-0.00549943
-0.00566687
-0.00582825
-0.00598333
-0.00613089
-0.00626962
-0.00639998
-0.00652471
-0.00664685
-0.00676824
-0.00688935
-0.00701004
-0.00713007
-0.00724994
-0.00737054
-0.00749255
-0.00761556
-0.0077385
-0.00786045
-0.00798119
-0.00810084
-0.00821919
-0.0083356
-0.00844945
-0.00856065
-0.00866944
-0.00877611
-0.00888089
-0.00898403
-0.00908552
-0.0091853
-0.00928351
-0.00938082
-0.00947773
-0.00957435
-0.00967029
-0.00976546
-0.00985998
-0.00995425
-0.0100485
-0.0101426
-0.0102364
-0.0103298
-0.010423
-0.0105163
-0.0106096
-0.0107025
-0.0107951
-0.0108877
-0.0109804
-0.0110731
-0.0111657
-0.011258
-0.0113502
-0.0114425
-0.0115352
-0.011628
-0.0117208
-0.0118134
-0.0119062
-0.0119992
-0.0120923
-0.0121853
-0.0122784
-0.0123716
-0.012465
-0.0125585
-0.012652
-0.0127457
-0.0128397
-0.0129342
-0.013029
-0.0131242
-0.0132195
-0.0133156
-0.0134122
-0.0135094
-0.013607
-0.0137052
-0.013804
-0.0139032
-0.014003
-0.0141031
-0.0142039
-0.014305
-0.0144066
-0.0145084
-0.0146109
-0.0147137
-0.0148172
-0.0149209
-0.0150252
-0.0151297
-0.0152349
-0.0153404
-0.0154464
-0.0155528
-0.0156596
-0.0157669
-0.0158745
-0.0159829
-0.0160916
-0.0162012
-0.016311
-0.0164216
-0.0165326
-0.0166445
-0.0167569
-0.0168699
-0.0169834
-0.0170973
-0.0172121
-0.0173272
-0.0174433
-0.0175594
-0.0176766
-0.0177939
-0.0179124
-0.0180311
-0.0181506
-0.0182706
-0.0183911
-0.0185126
-0.0186343
-0.0187573
-0.0188803
-0.0190045
-0.0191287
-0.0192545
-0.0193804
-0.0195071
-0.0196344
-0.0197621
-0.0198914
-0.0200203
-0.020151
-0.020281
-0.0204132
-0.0205454
-0.0206787
-0.0208125
-0.0209467
-0.0210828
-0.0212184
-0.021356
-0.0214927
-0.0216319
-0.0217709
-0.0219111
-0.022052
-0.0221928
-0.0223364
-0.0224784
-0.0226236
-0.0227672
-0.0229139
-0.0230604
-0.0232075
-0.0233567
-0.0235047
-0.0236568
-0.0238063
-0.0239592
-0.0241115
-0.0242648
-0.0244207
-0.0245735
-0.0247325
-0.0248869
-0.0250469
-0.0252045
-0.0253638
-0.0255259
-0.0256844
-0.0258488
-0.0260086
-0.0261718
-0.0263356
-0.0264941
-0.0266608
-0.0268131
-0.0269757
-0.0271094
-0.0272398
0.00778158
0.00450564
-0.00212801
-0.00722666
-0.00873428
-0.00784646
-0.00647403
-0.00548004
-0.00494503
-0.00471902
-0.00466706
-0.00471501
-0.00482618
-0.00497639
-0.00514594
-0.0053211
-0.00549428
-0.00566222
-0.00582402
-0.00597945
-0.00612731
-0.00626633
-0.00639699
-0.00652201
-0.00664441
-0.00676602
-0.00688732
-0.00700817
-0.00712835
-0.00724835
-0.00736907
-0.00749118
-0.00761428
-0.00773729
-0.0078593
-0.00798011
-0.00809981
-0.00821822
-0.00833467
-0.00844855
-0.0085598
-0.00866863
-0.00877533
-0.00888014
-0.00898331
-0.00908483
-0.00918463
-0.00928288
-0.0093802
-0.00947714
-0.00957378
-0.00966974
-0.00976493
-0.00985947
-0.00995376
-0.010048
-0.0101422
-0.010236
-0.0103294
-0.0104226
-0.0105159
-0.0106092
-0.0107021
-0.0107948
-0.0108874
-0.0109801
-0.0110727
-0.0111654
-0.0112577
-0.0113499
-0.0114422
-0.0115349
-0.0116277
-0.0117205
-0.0118132
-0.011906
-0.0119989
-0.012092
-0.0121851
-0.0122782
-0.0123714
-0.0124648
-0.0125583
-0.0126518
-0.0127455
-0.0128395
-0.0129341
-0.0130288
-0.013124
-0.0132194
-0.0133154
-0.013412
-0.0135093
-0.0136069
-0.0137051
-0.0138038
-0.0139031
-0.0140028
-0.014103
-0.0142037
-0.0143048
-0.0144065
-0.0145083
-0.0146108
-0.0147136
-0.0148171
-0.0149208
-0.0150251
-0.0151296
-0.0152348
-0.0153403
-0.0154463
-0.0155527
-0.0156595
-0.0157668
-0.0158744
-0.0159828
-0.0160915
-0.0162011
-0.0163109
-0.0164215
-0.0165325
-0.0166444
-0.0167568
-0.0168698
-0.0169833
-0.0170972
-0.017212
-0.0173271
-0.0174432
-0.0175593
-0.0176765
-0.0177939
-0.0179123
-0.018031
-0.0181505
-0.0182705
-0.018391
-0.0185126
-0.0186342
-0.0187573
-0.0188802
-0.0190045
-0.0191287
-0.0192544
-0.0193804
-0.0195071
-0.0196344
-0.019762
-0.0198913
-0.0200203
-0.0201509
-0.020281
-0.0204132
-0.0205453
-0.0206787
-0.0208124
-0.0209466
-0.0210827
-0.0212183
-0.021356
-0.0214926
-0.0216319
-0.0217709
-0.021911
-0.0220519
-0.0221928
-0.0223364
-0.0224783
-0.0226235
-0.0227671
-0.0229138
-0.0230603
-0.0232074
-0.0233567
-0.0235047
-0.0236568
-0.0238062
-0.0239592
-0.0241115
-0.0242647
-0.0244206
-0.0245735
-0.0247324
-0.0248868
-0.0250469
-0.0252045
-0.0253638
-0.0255259
-0.0256844
-0.0258487
-0.0260086
-0.0261718
-0.0263356
-0.0264941
-0.0266608
-0.0268131
-0.0269757
-0.0271094
-0.0272398
0.00699974
0.00432903
-0.00185918
-0.00686281
-0.00851054
-0.00775449
-0.00642438
-0.0054371
-0.00490785
-0.0046899
-0.00464524
-0.00469861
-0.00481348
-0.00496611
-0.00513722
-0.00531343
-0.00548743
-0.00565605
-0.0058184
-0.00597424
-0.00612243
-0.00626179
-0.00639284
-0.00651828
-0.00664107
-0.00676301
-0.00688458
-0.00700568
-0.00712608
-0.0072463
-0.00736721
-0.00748946
-0.00761268
-0.0077358
-0.00785791
-0.0079788
-0.00809858
-0.00821705
-0.00833355
-0.00844749
-0.0085588
-0.00866768
-0.00877443
-0.00887928
-0.00898248
-0.00908403
-0.00918386
-0.00928214
-0.0093795
-0.00947646
-0.00957313
-0.00966912
-0.00976432
-0.00985889
-0.0099532
-0.0100475
-0.0101417
-0.0102355
-0.0103289
-0.0104222
-0.0105155
-0.0106087
-0.0107017
-0.0107944
-0.010887
-0.0109797
-0.0110724
-0.011165
-0.0112573
-0.0113496
-0.0114419
-0.0115346
-0.0116274
-0.0117202
-0.0118129
-0.0119057
-0.0119987
-0.0120918
-0.0121849
-0.012278
-0.0123712
-0.0124645
-0.0125581
-0.0126516
-0.0127453
-0.0128393
-0.0129338
-0.0130286
-0.0131238
-0.0132192
-0.0133152
-0.0134119
-0.0135091
-0.0136067
-0.0137049
-0.0138036
-0.0139029
-0.0140027
-0.0141028
-0.0142036
-0.0143047
-0.0144063
-0.0145082
-0.0146106
-0.0147134