/*--------------------------------*- C++ -*----------------------------------*\
| =========                 |                                                 |
| \\      /  F ield         | OpenFOAM: The Open Source CFD Toolbox           |
|  \\    /   O peration     | Version:  v2012                                 |
|   \\  /    A nd           | Website:  www.openfoam.com                      |
|    \\/     M anipulation  |                                                 |
\*---------------------------------------------------------------------------*/
FoamFile
{
    version     2.0;
    format      ascii;
    class       surfaceScalarField;
    location    "5";
    object      phi;
}
// * * * * * * * * * * * * * * * * * * * * * * * * * * * * * * * * * * * * * //

dimensions      [0 3 -1 0 0 0 0];
oriented        oriented;


internalField   nonuniform List<scalar> 
34900
(
1.1783e-06
-1.22191e-07
1.17434e-06
3.00466e-07
1.17834e-06
1.43092e-07
1.16208e-06
-2.17686e-08
1.16403e-06
1.98623e-08
1.15415e-06
-4.86661e-08
1.15754e-06
4.49592e-08
1.14961e-06
-2.99318e-08
1.15367e-06
3.49003e-08
1.14588e-06
-3.40857e-08
1.15129e-06
6.10391e-08
1.14237e-06
-5.28461e-08
1.14979e-06
1.02328e-07
1.13694e-06
-8.94773e-08
1.14689e-06
1.32444e-07
1.12824e-06
-1.02228e-07
1.14047e-06
1.19632e-07
1.11755e-06
-7.63661e-08
1.12728e-06
9.49541e-08
-5.44524e-08
1.07815e-06
1.23348e-06
-1.31407e-07
1.23285e-06
3.01092e-07
1.2348e-06
1.4114e-07
1.21984e-06
-6.80735e-09
1.21913e-06
2.05698e-08
1.21158e-06
-4.11098e-08
1.2116e-06
4.49412e-08
1.20719e-06
-2.5524e-08
1.20729e-06
3.47998e-08
1.20417e-06
-3.09684e-08
1.20379e-06
6.14229e-08
1.20154e-06
-5.05977e-08
1.20059e-06
1.03279e-07
1.19785e-06
-8.6741e-08
1.19489e-06
1.35404e-07
1.19257e-06
-9.9909e-08
1.1847e-06
1.2751e-07
1.18737e-06
-7.90427e-08
1.16741e-06
1.1492e-07
-5.01557e-08
1.16311e-06
1.28948e-06
-1.38099e-07
1.29476e-06
2.9581e-07
1.29274e-06
1.43162e-07
1.28249e-06
3.44224e-09
1.27658e-06
2.64781e-08
1.2734e-06
-3.79342e-08
1.26816e-06
5.01845e-08
1.26901e-06
-2.63796e-08
1.26362e-06
4.01974e-08
1.26613e-06
-3.34822e-08
1.26005e-06
6.75028e-08
1.26354e-06
-5.40877e-08
1.25765e-06
1.09167e-07
1.26006e-06
-8.91463e-08
1.25449e-06
1.40972e-07
1.25532e-06
-1.0074e-07
1.24981e-06
1.33021e-07
1.24916e-06
-7.83936e-08
1.24222e-06
1.2186e-07
-3.16853e-08
1.22375e-06
1.34637e-06
-1.40367e-07
1.35752e-06
2.84663e-07
1.35235e-06
1.48331e-07
1.34763e-06
8.15724e-09
1.33692e-06
3.71889e-08
1.3374e-06
-3.84093e-08
1.32843e-06
5.91532e-08
1.33246e-06
-3.04077e-08
1.32457e-06
4.8089e-08
1.32892e-06
-3.78365e-08
1.32211e-06
7.4317e-08
1.32585e-06
-5.78283e-08
1.32172e-06
1.13289e-07
1.3228e-06
-9.0221e-08
1.32141e-06
1.42365e-07
1.31934e-06
-9.8677e-08
1.31972e-06
1.32641e-07
1.31396e-06
-7.26306e-08
1.3138e-06
1.22023e-07
-9.61901e-09
1.29173e-06
1.4054e-06
-1.37411e-07
1.42009e-06
2.69967e-07
1.41418e-06
1.54243e-07
1.41378e-06
8.56021e-09
1.40096e-06
5.00128e-08
1.40263e-06
-4.00838e-08
1.39331e-06
6.8476e-08
1.39733e-06
-3.4426e-08
1.39063e-06
5.47877e-08
1.39357e-06
-4.07822e-08
1.38923e-06
7.86589e-08
1.39083e-06
-5.94316e-08
1.38993e-06
1.14196e-07
1.38894e-06
-8.92334e-08
1.39057e-06
1.40734e-07
1.38671e-06
-9.48179e-08
1.38952e-06
1.29838e-07
1.38157e-06
-6.46802e-08
1.38357e-06
1.20022e-07
1.26085e-08
1.36134e-06
1.46829e-06
-1.30022e-07
1.48328e-06
2.54979e-07
1.47928e-06
1.58239e-07
1.48109e-06
6.75024e-09
1.46931e-06
6.17955e-08
1.47013e-06
-4.09048e-08
1.46292e-06
7.56799e-08
1.46531e-06
-3.68086e-08
1.46118e-06
5.89106e-08
1.46216e-06
-4.17534e-08
1.46022e-06
8.0596e-08
1.46021e-06
-5.94228e-08
1.46115e-06
1.13255e-07
1.45916e-06
-8.72435e-08
1.4621e-06
1.37794e-07
1.45736e-06
-9.00755e-08
1.4614e-06
1.258e-07
1.45191e-06
-5.51946e-08
1.45545e-06
1.16479e-07
3.46369e-08
1.43342e-06
1.53642e-06
-1.20228e-07
1.54913e-06
2.42272e-07
1.54847e-06
1.58897e-07
1.55086e-06
4.36499e-09
1.54198e-06
7.06731e-08
1.54142e-06
-4.03485e-08
1.53684e-06
8.02572e-08
1.53774e-06
-3.76998e-08
1.53565e-06
6.10001e-08
1.53547e-06
-4.15769e-08
1.53485e-06
8.12188e-08
1.53414e-06
-5.87202e-08
1.53589e-06
1.11511e-07
1.53339e-06
-8.47489e-08
1.53712e-06
1.34065e-07
1.53154e-06
-8.44931e-08
1.5367e-06
1.20642e-07
1.52571e-06
-4.42045e-08
1.5305e-06
1.11684e-07
5.60176e-08
1.50912e-06
1.61017e-06
-1.10271e-07
1.61965e-06
2.32794e-07
1.62202e-06
1.56528e-07
1.62429e-06
2.09213e-09
1.61854e-06
7.64239e-08
1.61722e-06
-3.90298e-08
1.61463e-06
8.28528e-08
1.61479e-06
-3.78647e-08
1.61382e-06
6.19702e-08
1.61327e-06
-4.1023e-08
1.61327e-06
8.12129e-08
1.6123e-06
-5.77483e-08
1.61451e-06
1.09307e-07
1.61153e-06
-8.17785e-08
1.61599e-06
1.2961e-07
1.60943e-06
-7.79298e-08
1.61564e-06
1.14426e-07
1.60325e-06
-3.18155e-08
1.60885e-06
1.06091e-07
7.61684e-08
1.5887e-06
1.68897e-06
-1.01663e-07
1.69574e-06
2.26021e-07
1.69979e-06
1.52479e-07
1.7019e-06
-1.72925e-11
1.69858e-06
7.9747e-08
1.69732e-06
-3.77711e-08
1.69596e-06
8.42097e-08
1.69596e-06
-3.78626e-08
1.69556e-06
6.23737e-08
1.69496e-06
-4.04314e-08
1.69538e-06
8.07992e-08
1.69422e-06
-5.65912e-08
1.69685e-06
1.06678e-07
1.6933e-06
-7.82295e-08
1.69851e-06
1.24401e-07
1.69084e-06
-7.02643e-08
1.69801e-06
1.07263e-07
1.68444e-06
-1.8251e-08
1.69031e-06
1.00222e-07
9.45202e-08
1.67196e-06
1.77197e-06
-9.49155e-08
1.77721e-06
2.20787e-07
1.78159e-06
1.48099e-07
1.78364e-06
-2.06776e-09
1.78189e-06
8.1494e-08
1.78117e-06
-3.70506e-08
1.7806e-06
8.47749e-08
1.78065e-06
-3.79106e-08
1.78061e-06
6.2421e-08
1.78004e-06
-3.98624e-08
1.78084e-06
7.99918e-08
1.77945e-06
-5.51997e-08
1.78257e-06
1.03561e-07
1.77832e-06
-7.39856e-08
1.78433e-06
1.18391e-07
1.77552e-06
-6.14497e-08
1.78345e-06
9.93358e-08
1.76907e-06
-3.87503e-09
1.77464e-06
9.46544e-08
1.10557e-07
1.7586e-06
1.85866e-06
-8.98312e-08
1.86338e-06
2.16067e-07
1.86732e-06
1.44163e-07
1.86935e-06
-4.09691e-09
1.86852e-06
8.23255e-08
1.86843e-06
-3.69577e-08
1.86844e-06
8.47625e-08
1.86855e-06
-3.80273e-08
1.86882e-06
6.21558e-08
1.86822e-06
-3.92602e-08
1.86947e-06
7.87405e-08
1.86775e-06
-5.34783e-08
1.87144e-06
9.98638e-08
1.86641e-06
-6.89545e-08
1.87325e-06
1.1156e-07
1.86335e-06
-5.15537e-08
1.87175e-06
9.09328e-08
1.85707e-06
1.08117e-08
1.86173e-06
8.99851e-08
1.23875e-07
1.84842e-06
1.94897e-06
-8.59605e-08
1.95375e-06
2.11286e-07
1.95705e-06
1.40867e-07
1.95904e-06
-6.08738e-09
1.95869e-06
8.26683e-08
1.9591e-06
-3.73639e-08
1.95958e-06
8.42835e-08
1.9597e-06
-3.81523e-08
1.9603e-06
6.15596e-08
1.95957e-06
-3.85289e-08
1.96133e-06
7.69781e-08
1.95917e-06
-5.13191e-08
1.96354e-06
9.5495e-08
1.95768e-06
-6.30905e-08
1.96529e-06
1.03948e-07
1.95451e-06
-4.07751e-08
1.96299e-06
8.24475e-08
1.94858e-06
2.52295e-08
1.95182e-06
8.67399e-08
1.3427e-07
1.94143e-06
2.04312e-06
-8.28916e-08
2.04814e-06
2.06262e-07
2.05092e-06
1.38093e-07
2.05286e-06
-8.02566e-09
2.05277e-06
8.27606e-08
2.05348e-06
-3.80778e-08
2.05436e-06
8.34015e-08
2.05441e-06
-3.81965e-08
2.05538e-06
6.05881e-08
2.05441e-06
-3.756e-08
2.05675e-06
7.4633e-08
2.05406e-06
-4.86221e-08
2.05916e-06
9.03914e-08
2.05248e-06
-5.64104e-08
2.06074e-06
9.56833e-08
2.0494e-06
-2.94316e-08
2.05751e-06
7.43345e-08
2.04391e-06
3.88307e-08
2.04539e-06
8.52594e-08
1.41799e-07
2.03786e-06
2.14145e-06
-8.03442e-08
2.1467e-06
2.0102e-07
2.14916e-06
1.3563e-07
2.15105e-06
-9.91741e-09
2.15111e-06
8.27014e-08
2.15195e-06
-3.89216e-08
2.15321e-06
8.21412e-08
2.15308e-06
-3.80582e-08
2.15448e-06
5.91816e-08
2.15317e-06
-3.62439e-08
2.15616e-06
7.16352e-08
2.15285e-06
-4.53112e-08
2.15871e-06
8.45327e-08
2.15131e-06
-4.90046e-08
2.16e-06
8.69856e-08
2.1485e-06
-1.79261e-08
2.15576e-06
6.7072e-08
2.14344e-06
5.11483e-08
2.14304e-06
8.56611e-08
1.46774e-07
2.13807e-06
2.2443e-06
-7.81563e-08
2.24966e-06
1.95659e-07
2.25201e-06
1.33283e-07
2.25386e-06
-1.17705e-08
2.25407e-06
8.2495e-08
2.25489e-06
-3.97481e-08
2.25655e-06
8.04868e-08
2.25612e-06
-3.76295e-08
2.25803e-06
5.72667e-08
2.25627e-06
-3.44783e-08
2.25998e-06
6.79256e-08
2.25602e-06
-4.13495e-08
2.26259e-06
7.79587e-08
2.25463e-06
-4.10458e-08
2.26346e-06
7.81537e-08
2.25223e-06
-6.69311e-09
2.25821e-06
6.1096e-08
2.24751e-06
6.18471e-08
2.24531e-06
8.78614e-08
1.49681e-07
2.2424e-06
2.35196e-06
-7.62446e-08
2.35733e-06
1.90295e-07
2.35972e-06
1.30888e-07
2.36153e-06
-1.35762e-08
2.36194e-06
8.20869e-08
2.36262e-06
-4.04316e-08
2.36472e-06
7.83866e-08
2.36389e-06
-3.68004e-08
2.36639e-06
5.47624e-08
2.36409e-06
-3.21774e-08
2.36855e-06
6.34705e-08
2.36396e-06
-3.67564e-08
2.37113e-06
7.07858e-08
2.36288e-06
-3.27933e-08
2.37148e-06
6.95464e-08
2.36093e-06
3.85657e-09
2.3653e-06
5.673e-08
2.35637e-06
7.07748e-08
2.35264e-06
9.1592e-08
1.51092e-07
2.35123e-06
2.46472e-06
-7.45729e-08
2.46997e-06
1.85044e-07
2.47256e-06
1.28303e-07
2.47428e-06
-1.52995e-08
2.47498e-06
8.13893e-08
2.4754e-06
-4.08539e-08
2.47803e-06
7.57627e-08
2.47669e-06
-3.5464e-08
2.47986e-06
5.15905e-08
2.47697e-06
-2.92855e-08
2.48216e-06
5.82795e-08
2.47703e-06
-3.1625e-08
2.4846e-06
6.32162e-08
2.47639e-06
-2.45802e-08
2.48439e-06
6.15457e-08
2.47486e-06
1.33882e-08
2.47745e-06
5.41334e-08
2.47024e-06
7.7989e-08
2.4654e-06
9.64289e-08
1.51595e-07
2.4649e-06
2.58286e-06
-7.31345e-08
2.58788e-06
1.80019e-07
2.59079e-06
1.25391e-07
2.59237e-06
-1.68788e-08
2.59347e-06
8.02931e-08
2.59351e-06
-4.08973e-08
2.59675e-06
7.25227e-08
2.59481e-06
-3.35247e-08
2.59871e-06
4.76915e-08
2.59522e-06
-2.57943e-08
2.60107e-06
5.24255e-08
2.59558e-06
-2.61327e-08
2.60327e-06
5.55263e-08
2.59546e-06
-1.67712e-08
2.60252e-06
5.44932e-08
2.59421e-06
2.16945e-08
2.59507e-06
5.32705e-08
2.58932e-06
8.37387e-08
2.58388e-06
1.01869e-07
1.51722e-07
2.58376e-06
2.70663e-06
-7.19402e-08
2.71132e-06
1.7533e-07
2.7147e-06
1.22019e-07
2.71605e-06
-1.82286e-08
2.71766e-06
7.86765e-08
2.71721e-06
-4.04452e-08
2.72116e-06
6.85734e-08
2.71855e-06
-3.09116e-08
2.72319e-06
4.30455e-08
2.71916e-06
-2.17624e-08
2.72553e-06
4.60605e-08
2.71993e-06
-2.05414e-08
2.72742e-06
4.80385e-08
2.72037e-06
-9.71399e-09
2.72621e-06
4.865e-08
2.71919e-06
2.87088e-08
2.71852e-06
5.3942e-08
2.71388e-06
8.83777e-08
2.70832e-06
1.07437e-07
1.51875e-07
2.70816e-06
2.83634e-06
-7.10119e-08
2.84058e-06
1.71088e-07
2.84455e-06
1.18047e-07
2.84557e-06
-1.92473e-08
2.84784e-06
7.64125e-08
2.84678e-06
-3.93913e-08
2.85152e-06
6.38395e-08
2.8482e-06
-2.75965e-08
2.85355e-06
3.7695e-08
2.84913e-06
-1.7337e-08
2.85576e-06
3.94243e-08
2.85039e-06
-1.51735e-08
2.85737e-06
4.10654e-08
2.85132e-06
-3.67049e-09
2.85584e-06
4.41338e-08
2.85001e-06
3.45358e-08
2.84811e-06
5.5842e-08
2.84424e-06
9.22533e-08
2.8389e-06
1.12773e-07
1.52292e-07
2.83849e-06
2.97226e-06
-7.03767e-08
2.97594e-06
1.67404e-07
2.98066e-06
1.13336e-07
2.98124e-06
-1.98266e-08
2.98427e-06
7.33819e-08
2.98253e-06
-3.7655e-08
2.98808e-06
5.82853e-08
2.9841e-06
-2.36177e-08
2.99003e-06
3.17661e-08
2.98545e-06
-1.27573e-08
2.99205e-06
3.28243e-08
2.98725e-06
-1.03736e-08
2.99345e-06
3.48669e-08
2.98855e-06
1.22938e-09
2.99181e-06
4.08799e-08
2.98691e-06
3.94311e-08
2.98411e-06
5.86459e-08
2.98072e-06
9.56356e-08
2.97584e-06
1.17661e-07
1.53051e-07
2.97508e-06
3.11469e-06
-7.00634e-08
3.11771e-06
1.64391e-07
3.1233e-06
1.07742e-07
3.12334e-06
-1.9864e-08
3.12723e-06
6.94872e-08
3.12478e-06
-3.51985e-08
3.13112e-06
5.19379e-08
3.1266e-06
-1.90996e-08
3.13289e-06
2.54803e-08
3.12848e-06
-8.34588e-09
3.1347e-06
2.66022e-08
3.13078e-06
-6.45327e-09
3.13605e-06
2.95999e-08
3.13227e-06
5.00397e-09
3.13449e-06
3.86613e-08
3.1302e-06
4.37195e-08
3.12675e-06
6.21016e-08
3.12364e-06
9.87476e-08
3.11933e-06
1.21967e-07
1.54128e-07
3.11825e-06
3.26395e-06
-7.00992e-08
3.26618e-06
1.62158e-07
3.27279e-06
1.01132e-07
3.2722e-06
-1.92789e-08
3.27702e-06
6.46721e-08
3.27387e-06
-3.20496e-08
3.28089e-06
4.49126e-08
3.27607e-06
-1.42735e-08
3.28239e-06
1.91603e-08
3.27853e-06
-4.49159e-09
3.28404e-06
2.10955e-08
3.28123e-06
-3.63938e-09
3.28554e-06
2.52901e-08
3.28277e-06
7.7702e-09
3.28428e-06
3.71502e-08
3.28033e-06
4.7675e-08
3.27627e-06
6.61615e-08
3.27311e-06
1.01908e-07
3.26964e-06
1.25431e-07
1.55577e-07
3.26819e-06
3.42034e-06
-7.05071e-08
3.42169e-06
1.60807e-07
3.42943e-06
9.33917e-08
3.42818e-06
-1.80326e-08
3.43391e-06
5.89449e-08
3.43019e-06
-2.83275e-08
3.43767e-06
3.74359e-08
3.43288e-06
-9.48523e-09
3.43882e-06
1.32162e-08
3.43595e-06
-1.61401e-09
3.44045e-06
1.65923e-08
3.43885e-06
-2.03656e-09
3.44228e-06
2.18569e-08
3.44039e-06
9.66035e-09
3.44163e-06
3.59087e-08
3.4381e-06
5.12043e-08
3.43291e-06
7.13554e-08
3.42892e-06
1.05896e-07
3.42646e-06
1.27886e-07
1.57374e-07
3.42467e-06
3.58421e-06
-7.13032e-08
3.58459e-06
1.6042e-07
3.59354e-06
8.44454e-08
3.59166e-06
-1.61497e-08
3.5982e-06
5.23994e-08
3.59414e-06
-2.42602e-08
3.60172e-06
2.98463e-08
3.5974e-06
-5.16035e-09
3.60256e-06
8.0542e-09
3.60097e-06
-2.35445e-11
3.60436e-06
1.32004e-08
3.60387e-06
-1.54415e-09
3.60667e-06
1.90549e-08
3.60548e-06
1.08506e-08
3.60708e-06
3.43139e-08
3.60685e-06
5.1435e-08
3.60701e-06
7.11909e-08
3.60058e-06
1.12331e-07
3.58378e-06
1.44688e-07
1.54359e-07
3.58679e-06
3.7559e-06
-7.2494e-08
3.75526e-06
1.61052e-07
3.76543e-06
7.42808e-08
3.76302e-06
-1.37433e-08
3.77019e-06
4.52319e-08
3.76611e-06
-2.01832e-08
3.7734e-06
2.25581e-08
3.76997e-06
-1.73359e-09
3.77403e-06
3.99837e-09
3.77382e-06
1.9156e-10
3.77628e-06
1.07369e-08
3.77656e-06
-1.82204e-09
3.77923e-06
1.63768e-08
3.77873e-06
1.13547e-08
3.78124e-06
3.18067e-08
3.78513e-06
4.7542e-08
3.79046e-06
6.58628e-08
3.79913e-06
1.03664e-07
3.81045e-06
1.33368e-07
1.7783e-07
3.78698e-06
3.93577e-06
-7.40725e-08
3.93411e-06
1.6271e-07
3.94541e-06
6.29784e-08
3.94271e-06
-1.10447e-08
3.95018e-06
3.77624e-08
3.94655e-06
-1.65508e-08
3.95307e-06
1.60376e-08
3.95091e-06
4.22764e-10
3.95372e-06
1.18839e-09
3.9547e-06
-7.80944e-10
3.95666e-06
8.77748e-09
3.95729e-06
-2.45475e-09
3.96036e-06
1.331e-08
3.96176e-06
9.95449e-09
3.96422e-06
2.93426e-08
3.95654e-06
5.52219e-08
3.94489e-06
7.75135e-08
3.93854e-06
1.10009e-07
3.92876e-06
1.43155e-07
1.71825e-07
3.93476e-06
4.12419e-06
-7.6015e-08
4.12156e-06
1.6534e-07
4.1338e-06
5.07373e-08
4.13117e-06
-8.41527e-09
4.13853e-06
3.04073e-08
4.13584e-06
-1.38594e-08
4.1412e-06
1.06733e-08
4.14047e-06
1.15958e-09
4.14222e-06
-5.69714e-10
4.14386e-06
-2.4179e-09
4.14595e-06
6.68551e-09
4.14668e-06
-3.18483e-09
4.14825e-06
1.17428e-08
4.14308e-06
1.51225e-08
4.13567e-06
3.6756e-08
4.13134e-06
5.95482e-08
4.12714e-06
8.17194e-08
4.1227e-06
1.14448e-07
4.11921e-06
1.46637e-07
1.68905e-07
4.12213e-06
4.32156e-06
-7.82774e-08
4.31809e-06
1.68812e-07
4.33093e-06
3.78986e-08
4.32886e-06
-6.34739e-09
4.33563e-06
2.36449e-08
4.33435e-06
-1.25813e-08
4.33834e-06
6.68383e-09
4.33889e-06
6.02004e-10
4.34003e-06
-1.70088e-09
4.34176e-06
-4.14921e-09
4.34373e-06
4.71159e-09
4.34089e-06
-3.40921e-10
4.33743e-06
1.51962e-08
4.33209e-06
2.04704e-08
4.32822e-06
4.0617e-08
4.32374e-06
6.40337e-08
4.31948e-06
8.59763e-08
4.31688e-06
1.1705e-07
4.31649e-06
1.47032e-07
1.66883e-07
4.31851e-06
4.52829e-06
-8.07931e-08
4.5242e-06
1.72903e-07
4.53712e-06
2.49769e-08
4.53624e-06
-5.46771e-09
4.54191e-06
1.79801e-08
4.54243e-06
-1.31032e-08
4.54505e-06
4.05631e-09
4.5465e-06
-8.38769e-10
4.54752e-06
-2.72573e-09
4.54795e-06
-4.57537e-09
4.54739e-06
5.27158e-09
4.54213e-06
4.91629e-09
4.53869e-06
1.8635e-08
4.53364e-06
2.55256e-08
4.53016e-06
4.40893e-08
4.52597e-06
6.82237e-08
4.52193e-06
9.00187e-08
4.52035e-06
1.1863e-07
4.52198e-06
1.45404e-07
1.65702e-07
4.52316e-06
4.74479e-06
-8.34727e-08
4.7404e-06
1.77301e-07
4.75275e-06
1.2628e-08
4.75373e-06
-6.45072e-09
4.7579e-06
1.38045e-08
4.76035e-06
-1.55518e-08
4.76198e-06
2.42673e-09
4.76358e-06
-2.44108e-09
4.76453e-06
-3.67193e-09
4.76169e-06
-1.73583e-09
4.75911e-06
7.85579e-09
4.75402e-06
1.00063e-08
4.75019e-06
2.24614e-08
4.74547e-06
3.02513e-08
4.74208e-06
4.74729e-08
4.73834e-06
7.19638e-08
4.73459e-06
9.37663e-08
4.73379e-06
1.19429e-07
4.73552e-06
1.43678e-07
1.64089e-07
4.73713e-06
4.97153e-06
-8.62054e-08
4.96723e-06
1.81606e-07
4.97822e-06
1.63421e-09
4.98173e-06
-9.95813e-09
4.98422e-06
1.13164e-08
4.98843e-06
-1.97663e-08
4.98964e-06
1.21471e-09
4.9903e-06
-3.09702e-09
4.99006e-06
-3.4386e-09
4.98455e-06
3.78336e-09
4.98105e-06
1.13554e-08
4.97636e-06
1.46954e-08
4.97243e-06
2.6387e-08
4.9678e-06
3.4882e-08
4.96443e-06
5.0844e-08
4.96121e-06
7.51865e-08
4.95793e-06
9.70457e-08
4.9576e-06
1.19754e-07
4.95895e-06
1.42327e-07
1.61738e-07
4.9613e-06
5.20897e-06
-8.88636e-08
5.20523e-06
1.85353e-07
5.21405e-06
-7.18421e-09
5.22056e-06
-1.64738e-08
5.2215e-06
1.03765e-08
5.22706e-06
-2.53263e-08
5.22831e-06
-3.60146e-11
5.22683e-06
-1.61814e-09
5.22409e-06
-6.94955e-10
5.21798e-06
9.8951e-09
5.21378e-06
1.55482e-08
5.20967e-06
1.88082e-08
5.20579e-06
3.02708e-08
5.20112e-06
3.95515e-08
5.19769e-06
5.42677e-08
5.19496e-06
7.79223e-08
5.19243e-06
9.95765e-08
5.19214e-06
1.20037e-07
5.19345e-06
1.4102e-07
1.58886e-07
5.1963e-06
5.45764e-06
-9.1314e-08
5.45494e-06
1.88052e-07
5.46089e-06
-1.31364e-08
5.47043e-06
-2.60127e-08
5.47047e-06
1.03363e-08
5.47666e-06
-3.15184e-08
5.47832e-06
-1.69498e-09
5.4727e-06
4.00724e-09
5.46862e-06
3.38391e-09
5.46279e-06
1.57219e-08
5.45808e-06
2.02589e-08
5.45437e-06
2.25183e-08
5.45064e-06
3.39983e-08
5.44598e-06
4.42141e-08
5.44243e-06
5.78236e-08
5.44008e-06
8.0264e-08
5.43844e-06
1.01218e-07
5.43809e-06
1.20394e-07
5.43951e-06
1.39595e-07
1.55698e-07
5.4427e-06
5.71807e-06
-9.34249e-08
5.71691e-06
1.89211e-07
5.71958e-06
-1.58043e-08
5.73152e-06
-3.79543e-08
5.73147e-06
1.03817e-08
5.73652e-06
-3.65627e-08
5.73611e-06
-1.28543e-09
5.72863e-06
1.14836e-08
5.72457e-06
7.44674e-09
5.71974e-06
2.05517e-08
5.71454e-06
2.54568e-08
5.71089e-06
2.61693e-08
5.70746e-06
3.74291e-08
5.70293e-06
4.87408e-08
5.69922e-06
6.15328e-08
5.69717e-06
8.23214e-08
5.69633e-06
1.02058e-07
5.69609e-06
1.20633e-07
5.69765e-06
1.38033e-07
1.52294e-07
5.70105e-06
5.99085e-06
-9.50793e-08
5.99171e-06
1.88351e-07
5.99096e-06
-1.50567e-08
6.00392e-06
-5.09164e-08
6.00287e-06
1.14334e-08
6.00369e-06
-3.73847e-08
6.00388e-06
-1.47171e-09
5.99705e-06
1.83116e-08
5.99317e-06
1.1331e-08
5.9892e-06
2.4517e-08
5.98373e-06
3.09285e-08
5.97979e-06
3.01067e-08
5.97672e-06
4.04973e-08
5.9725e-06
5.29649e-08
5.96869e-06
6.53389e-08
5.96683e-06
8.41822e-08
5.96657e-06
1.02318e-07
5.96671e-06
1.20495e-07
5.96844e-06
1.36301e-07
1.48765e-07
5.97197e-06
6.27659e-06
-9.61839e-08
6.27983e-06
1.85112e-07
6.27593e-06
-1.11566e-08
6.28791e-06
-6.28907e-08
6.28606e-06
1.32845e-08
6.28505e-06
-3.63824e-08
6.28602e-06
-2.44354e-09
6.27909e-06
2.52459e-08
6.27484e-06
1.55834e-08
6.27167e-06
2.7682e-08
6.26622e-06
3.63827e-08
6.26175e-06
3.45804e-08
6.25896e-06
4.32862e-08
6.25522e-06
5.67034e-08
6.25143e-06
6.91267e-08
6.24971e-06
8.58998e-08
6.24978e-06
1.02251e-07
6.25047e-06
1.19802e-07
6.25246e-06
1.34316e-07
1.45146e-07
6.25608e-06
6.57595e-06
-9.66655e-08
6.58176e-06
1.79298e-07
6.57519e-06
-4.58197e-09
6.58498e-06
-7.26834e-08
6.58358e-06
1.46825e-08
6.58084e-06
-3.36412e-08
6.5822e-06
-3.80183e-09
6.57517e-06
3.22809e-08
6.57016e-06
2.05911e-08
6.56772e-06
3.01222e-08
6.56257e-06
4.15325e-08
6.55747e-06
3.9679e-08
6.55476e-06
4.6001e-08
6.55164e-06
5.98212e-08
6.54805e-06
7.27126e-08
6.54645e-06
8.75009e-08
6.54666e-06
1.02045e-07
6.54793e-06
1.18531e-07
6.55027e-06
1.31972e-07
1.41415e-07
6.554e-06
6.8896e-06
-9.6475e-08
6.89791e-06
1.70989e-07
6.8894e-06
3.9285e-09
6.89671e-06
-7.99967e-08
6.8957e-06
1.56977e-08
6.89122e-06
-2.91691e-08
6.89264e-06
-5.21331e-09
6.88583e-06
3.90871e-08
6.87985e-06
2.65734e-08
6.87791e-06
3.20568e-08
6.87335e-06
4.60923e-08
6.86771e-06
4.53259e-08
6.86482e-06
4.88909e-08
6.86234e-06
6.23012e-08
6.85918e-06
7.58705e-08
6.85772e-06
8.89636e-08
6.85794e-06
1.0182e-07
6.8597e-06
1.16771e-07
6.86248e-06
1.2919e-07
1.37506e-07
6.86639e-06
7.21824e-06
-9.55832e-08
7.22873e-06
1.60505e-07
7.21921e-06
1.34435e-08
7.22383e-06
-8.4612e-08
7.22325e-06
1.62768e-08
7.21687e-06
-2.27938e-08
7.21785e-06
-6.1867e-09
7.21165e-06
4.5284e-08
7.20468e-06
3.35419e-08
7.20292e-06
3.38225e-08
7.19916e-06
4.98444e-08
7.1932e-06
5.12858e-08
7.18989e-06
5.22026e-08
7.18794e-06
6.42517e-08
7.18544e-06
7.83741e-08
7.18419e-06
9.02173e-08
7.18438e-06
1.01629e-07
7.18648e-06
1.14668e-07
7.18972e-06
1.25945e-07
1.3334e-07
7.19389e-06
7.56262e-06
-9.39803e-08
7.57497e-06
1.48156e-07
7.56512e-06
2.32977e-08
7.56718e-06
-8.66779e-08
7.5672e-06
1.62652e-08
7.55854e-06
-1.41369e-08
7.55843e-06
-6.07621e-09
7.55328e-06
5.04364e-08
7.54547e-06
4.13457e-08
7.54344e-06
3.58546e-08
7.54064e-06
5.26439e-08
7.53469e-06
5.72334e-08
7.5308e-06
5.60981e-08
7.52916e-06
6.58856e-08
7.5275e-06
8.00352e-08
7.52653e-06
9.11855e-08
7.52673e-06
1.01429e-07
7.52902e-06
1.12378e-07
7.53268e-06
1.22287e-07
1.28858e-07
7.53716e-06
7.92351e-06
-9.16784e-08
7.93742e-06
1.34243e-07
7.92752e-06
3.31974e-08
7.92813e-06
-8.72829e-08
7.92857e-06
1.58235e-08
7.91688e-06
-2.44792e-09
7.91513e-06
-4.32178e-09
7.91135e-06
5.42073e-08
7.90305e-06
4.9654e-08
7.9003e-06
3.85976e-08
7.8984e-06
5.45496e-08
7.89288e-06
6.27528e-08
7.88837e-06
6.06021e-08
7.8868e-06
6.7463e-08
7.88603e-06
8.08028e-08
7.88546e-06
9.1752e-08
7.88579e-06
1.01102e-07
7.88815e-06
1.10016e-07
7.89212e-06
1.18323e-07
1.24042e-07
7.89693e-06
8.30168e-06
-8.86814e-08
8.31716e-06
1.18772e-07
8.31004e-06
4.03092e-08
8.30987e-06
-8.71106e-08
8.30837e-06
1.7325e-08
8.29257e-06
1.33529e-08
8.28881e-06
-5.60052e-10
8.28663e-06
5.6388e-08
8.27823e-06
5.80473e-08
8.2744e-06
4.24347e-08
8.27313e-06
5.58132e-08
8.26842e-06
6.74626e-08
8.26348e-06
6.55458e-08
8.26171e-06
6.92319e-08
8.26171e-06
8.07994e-08
8.26171e-06
9.17563e-08
8.2623e-06
1.00513e-07
8.26469e-06
1.07622e-07
8.26884e-06
1.14179e-07
1.18919e-07
8.27396e-06
8.69799e-06
-8.50138e-08
8.71656e-06
1.00211e-07
8.71608e-06
4.07837e-08
8.7194e-06
-9.04296e-08
8.70661e-06
3.01164e-08
8.68631e-06
3.36541e-08
8.68055e-06
5.20155e-09
8.67986e-06
5.70744e-08
8.67179e-06
6.61173e-08
8.66667e-06
4.75518e-08
8.66568e-06
5.68036e-08
8.66202e-06
7.11267e-08
8.65697e-06
7.05943e-08
8.65483e-06
7.13704e-08
8.65538e-06
8.02523e-08
8.65601e-06
9.11197e-08
8.65703e-06
9.9495e-08
8.6595e-06
1.05154e-07
8.66373e-06
1.09953e-07
1.13576e-07
8.66907e-06
9.11327e-06
-8.0666e-08
9.14244e-06
7.10418e-08
9.14649e-06
3.67362e-08
9.13387e-06
-7.78082e-08
9.11959e-06
4.43928e-08
9.09948e-06
5.37649e-08
9.09178e-06
1.29032e-08
9.09182e-06
5.70313e-08
9.08448e-06
7.34602e-08
9.0781e-06
5.39306e-08
9.07695e-06
5.79512e-08
9.07439e-06
7.36861e-08
9.06968e-06
7.53039e-08
9.06716e-06
7.38972e-08
9.06792e-06
7.94873e-08
9.06921e-06
8.98336e-08
9.07081e-06
9.78894e-08
9.07345e-06
1.02514e-07
9.07771e-06
1.05693e-07
1.08113e-07
9.08318e-06
9.54823e-06
-7.54374e-08
9.56974e-06
4.95292e-08
9.55282e-06
5.36628e-08
9.54601e-06
-7.10052e-08
9.54969e-06
4.07151e-08
9.53337e-06
7.00871e-08
9.52339e-06
2.28817e-08
9.52336e-06
5.70623e-08
9.51711e-06
7.97109e-08
9.50974e-06
6.13026e-08
9.508e-06
5.96931e-08
9.50642e-06
7.52667e-08
9.50246e-06
7.92578e-08
9.49975e-06
7.66092e-08
9.5003e-06
7.89317e-08
9.50221e-06
8.79297e-08
9.50449e-06
9.56063e-08
9.50742e-06
9.95839e-08
9.51171e-06
1.01404e-07
1.02587e-07
9.51724e-06
1.00038e-05
-6.9136e-08
1.00041e-05
4.92188e-08
9.99525e-06
6.25602e-08
9.99444e-06
-7.0196e-08
1.00013e-05
3.38238e-08
9.98809e-06
8.33278e-08
9.9761e-06
3.48673e-08
9.97556e-06
5.76028e-08
9.9705e-06
8.47738e-08
9.96253e-06
6.92666e-08
9.95983e-06
6.24001e-08
9.95898e-06
7.61152e-08
9.95607e-06
8.21683e-08
9.95343e-06
7.92455e-08
9.95362e-06
7.8746e-08
9.95596e-06
8.55868e-08
9.95893e-06
9.26364e-08
9.96228e-06
9.62318e-08
9.96665e-06
9.70385e-08
9.70156e-08
9.97222e-06
1.04817e-05
-6.21663e-08
1.04743e-05
5.65886e-08
1.04733e-05
6.35874e-08
1.04704e-05
-6.73598e-08
1.04745e-05
2.97981e-08
1.04636e-05
9.41615e-08
1.04508e-05
4.76629e-08
1.04493e-05
5.91648e-08
1.04454e-05
8.86038e-08
1.04373e-05
7.7373e-08
1.04335e-05
6.62631e-08
1.0433e-05
7.65495e-08
1.04312e-05
8.39618e-08
1.04289e-05
8.15911e-08
1.04289e-05
7.87556e-08
1.04314e-05
8.30828e-08
1.0435e-05
8.90757e-08
1.04388e-05
9.23413e-08
1.04434e-05
9.24734e-08
9.1445e-08
1.0449e-05
1.09835e-05
-5.56553e-08
1.10258e-05
1.43232e-08
1.10128e-05
7.65407e-08
1.09732e-05
-2.77249e-08
1.09691e-05
3.38991e-08
1.09617e-05
1.0151e-07
1.09486e-05
6.07794e-08
1.09456e-05
6.21337e-08
1.09428e-05
9.14257e-08
1.0935e-05
8.51917e-08
1.093e-05
7.1294e-08
1.09295e-05
7.70068e-08
1.09288e-05
8.4724e-08
1.0927e-05
8.33642e-08
1.0927e-05
7.87599e-08
1.09295e-05
8.05808e-08
1.09335e-05
8.50426e-08
1.0938e-05
8.78506e-08
1.09429e-05
8.75597e-08
8.58393e-08
1.09485e-05
1.15072e-05
-4.74614e-08
1.15009e-05
2.0557e-08
1.15013e-05
7.61333e-08
1.14917e-05
-1.80909e-08
1.14915e-05
3.41102e-08
1.14845e-05
1.08513e-07
1.14704e-05
7.48706e-08
1.14658e-05
6.67149e-08
1.14638e-05
9.33999e-08
1.14568e-05
9.22599e-08
1.1451e-05
7.70764e-08
1.14501e-05
7.79237e-08
1.14501e-05
8.47218e-08
1.14493e-05
8.41721e-08
1.14493e-05
7.87767e-08
1.14517e-05
7.81406e-08
1.14561e-05
8.06879e-08
1.14611e-05
8.28342e-08
1.14664e-05
8.22738e-08
8.00549e-08
1.14721e-05
1.20574e-05
-3.90458e-08
1.20574e-05
2.05226e-08
1.2048e-05
8.55839e-08
1.20367e-05
-6.78679e-09
1.20379e-05
3.29437e-08
1.20324e-05
1.13924e-07
1.20176e-05
8.9717e-08
1.20111e-05
7.32337e-08
1.20094e-05
9.5042e-08
1.20034e-05
9.82837e-08
1.19972e-05
8.33083e-08
1.19955e-05
7.959e-08
1.19959e-05
8.42998e-08
1.19962e-05
8.39352e-08
1.19964e-05
7.85024e-08
1.19988e-05
7.57735e-08
1.20035e-05
7.60462e-08
1.20089e-05
7.73624e-08
1.20146e-05
7.65529e-08
7.39768e-08
1.20207e-05
1.26339e-05
-3.03855e-08
1.26299e-05
2.45363e-08
1.26253e-05
9.01914e-08
1.26103e-05
8.27322e-09
1.26093e-05
3.3854e-08
1.26059e-05
1.17364e-07
1.25911e-05
1.04497e-07
1.25825e-05
8.18519e-08
1.25806e-05
9.69052e-08
1.25759e-05
1.03036e-07
1.25696e-05
8.95779e-08
1.25671e-05
8.208e-08
1.25677e-05
8.37164e-08
1.25687e-05
8.29462e-08
1.25697e-05
7.75105e-08
1.25721e-05
7.33629e-08
1.25769e-05
7.12283e-08
1.25827e-05
7.15485e-08
1.25889e-05
7.03928e-08
6.76011e-08
1.25953e-05
1.32383e-05
-2.17665e-08
1.32455e-05
1.73115e-08
1.32371e-05
9.85918e-08
1.32129e-05
3.25029e-08
1.32079e-05
3.88864e-08
1.32062e-05
1.19072e-07
1.31923e-05
1.18378e-07
1.31817e-05
9.24744e-08
1.31789e-05
9.96231e-08
1.31753e-05
1.06692e-07
1.31694e-05
9.55174e-08
1.31661e-05
8.53225e-08
1.31665e-05
8.33163e-08
1.31681e-05
8.14027e-08
1.31698e-05
7.57261e-08
1.31727e-05
7.05345e-08
1.31776e-05
6.63246e-08
1.31836e-05
6.54741e-08
1.31902e-05
6.38174e-08
6.08588e-08
1.3197e-05
1.38717e-05
-1.3327e-08
1.38813e-05
7.75238e-09
1.38714e-05
1.08427e-07
1.38448e-05
5.91958e-08
1.38361e-05
4.75886e-08
1.38347e-05
1.20402e-07
1.38221e-05
1.30962e-07
1.38099e-05
1.04679e-07
1.38058e-05
1.03761e-07
1.38028e-05
1.09671e-07
1.37976e-05
1.00781e-07
1.37939e-05
8.90213e-08
1.37938e-05
8.33345e-08
1.37957e-05
7.95027e-08
1.37983e-05
7.3198e-08
1.38018e-05
6.70304e-08
1.38068e-05
6.12794e-08
1.38131e-05
5.9236e-08
1.382e-05
5.68516e-08
5.36821e-08
1.38272e-05
1.45353e-05
-4.92096e-09
1.45217e-05
2.12913e-08
1.45241e-05
1.06086e-07
1.45071e-05
7.61218e-08
1.44954e-05
5.93711e-08
1.4493e-05
1.22716e-07
1.44819e-05
1.42098e-07
1.44687e-05
1.17917e-07
1.44628e-05
1.09625e-07
1.446e-05
1.12518e-07
1.44555e-05
1.05277e-07
1.44516e-05
9.28427e-08
1.44511e-05
8.38623e-08
1.44531e-05
7.75155e-08
1.44562e-05
7.00721e-08
1.44605e-05
6.27748e-08
1.44658e-05
5.59348e-08
1.44722e-05
5.28493e-08
1.44796e-05
4.94899e-08
4.59951e-08
1.44873e-05
1.52312e-05
2.80136e-09
1.52227e-05
2.97476e-08
1.52189e-05
1.09883e-07
1.52005e-05
9.45741e-08
1.51865e-05
7.33498e-08
1.51825e-05
1.26658e-07
1.51727e-05
1.51911e-07
1.5159e-05
1.31652e-07
1.51513e-05
1.17323e-07
1.5148e-05
1.15837e-07
1.51441e-05
1.09175e-07
1.51404e-05
9.65445e-08
1.51394e-05
8.48442e-08
1.51412e-05
7.56564e-08
1.51448e-05
6.65211e-08
1.51498e-05
5.78104e-08
1.51555e-05
5.0231e-08
1.51624e-05
4.59388e-08
1.517e-05
4.19129e-08
3.75878e-08
1.51784e-05
1.59603e-05
9.82554e-09
1.5957e-05
3.307e-08
1.5946e-05
1.20871e-07
1.59277e-05
1.12864e-07
1.59109e-05
9.01858e-08
1.59048e-05
1.32748e-07
1.58959e-05
1.60751e-07
1.58823e-05
1.45335e-07
1.58728e-05
1.26812e-07
1.58684e-05
1.20211e-07
1.58649e-05
1.12704e-07
1.58614e-05
9.99768e-08
1.58601e-05
8.61553e-08
1.58617e-05
7.40554e-08
1.58655e-05
6.27163e-08
1.5871e-05
5.23762e-08
1.58772e-05
4.40349e-08
1.58849e-05
3.82044e-08
1.5893e-05
3.37903e-08
2.90031e-08
1.59016e-05
1.6723e-05
1.74063e-08
1.66922e-05
6.39265e-08
1.67021e-05
1.10926e-07
1.66908e-05
1.24183e-07
1.66699e-05
1.11038e-07
1.66615e-05
1.41206e-07
1.66533e-05
1.68981e-07
1.66399e-05
1.58683e-07
1.66288e-05
1.37894e-07
1.66229e-05
1.26176e-07
1.66193e-05
1.16301e-07
1.6616e-05
1.03188e-07
1.66145e-05
8.77083e-08
1.66158e-05
7.27727e-08
1.66196e-05
5.89137e-08
1.66253e-05
4.66899e-08
1.66323e-05
3.70217e-08
1.66406e-05
2.98611e-08
1.66498e-05
2.45905e-08
2.01807e-08
1.66586e-05
1.75257e-05
2.203e-08
1.75533e-05
3.6313e-08
1.75282e-05
1.36049e-07
1.74891e-05
1.63272e-07
1.74646e-05
1.35567e-07
1.74543e-05
1.51478e-07
1.74461e-05
1.77257e-07
1.74331e-05
1.71689e-07
1.74206e-05
1.50338e-07
1.74128e-05
1.33954e-07
1.74085e-05
1.20675e-07
1.74054e-05
1.0622e-07
1.74037e-05
8.9452e-08
1.74047e-05
7.17868e-08
1.74084e-05
5.52262e-08
1.74143e-05
4.07202e-08
1.74221e-05
2.92641e-08
1.74312e-05
2.07348e-08
1.74412e-05
1.4632e-08
1.00462e-08
1.74513e-05
1.83612e-05
2.91611e-08
1.83264e-05
7.10965e-08
1.83352e-05
1.27236e-07
1.83242e-05
1.74331e-07
1.83001e-05
1.59686e-07
1.8286e-05
1.65532e-07
1.8277e-05
1.86278e-07
1.82643e-05
1.84426e-07
1.82506e-05
1.6398e-07
1.82408e-05
1.43719e-07
1.8235e-05
1.26556e-07
1.82317e-05
1.09456e-07
1.82296e-05
9.15385e-08
1.82302e-05
7.12065e-08
1.82337e-05
5.17745e-08
1.82398e-05
3.45665e-08
1.82482e-05
2.08631e-08
1.82582e-05
1.07231e-08
1.82693e-05
3.53273e-09
-1.31175e-09
1.82807e-05
1.92411e-05
3.44454e-08
1.92365e-05
7.56854e-08
1.92113e-05
1.52486e-07
1.91977e-05
1.87935e-07
1.91744e-05
1.82984e-07
1.91577e-05
1.82245e-07
1.91473e-05
1.9667e-07
1.91344e-05
1.97287e-07
1.91195e-05
1.78837e-07
1.91076e-05
1.55672e-07
1.90998e-05