/*--------------------------------*- C++ -*----------------------------------*\
| =========                 |                                                 |
| \\      /  F ield         | OpenFOAM: The Open Source CFD Toolbox           |
|  \\    /   O peration     | Version:  v2012                                 |
|   \\  /    A nd           | Website:  www.openfoam.com                      |
|    \\/     M anipulation  |                                                 |
\*---------------------------------------------------------------------------*/
FoamFile
{
    version     2.0;
    format      ascii;
    class       volVectorField;
    location    "5";
    object      U;
}
// * * * * * * * * * * * * * * * * * * * * * * * * * * * * * * * * * * * * * //

dimensions      [0 1 -1 0 0 0 0];


internalField   nonuniform List<vector> 
17600
(
(0.821729 -0.00116201 0)
(1.17991 0.00327446 0)
(0.843336 0.00173951 0)
(1.16169 -0.000416594 0)
(0.840551 0.000289784 0)
(1.13928 -0.000838557 0)
(0.848586 0.000775823 0)
(1.12136 -0.000627366 0)
(0.857166 0.000729565 0)
(1.10732 -0.00082895 0)
(0.864433 0.00149065 0)
(1.09639 -0.00146709 0)
(0.868437 0.00294139 0)
(1.08958 -0.00288049 0)
(0.866454 0.00449395 0)
(1.08586 -0.00390363 0)
(0.855501 0.00473909 0)
(1.08386 -0.00341784 0)
(0.836404 0.00415005 0)
(1.08119 -0.0028122 0)
(0.832156 -0.0012694 0)
(1.16882 0.00328674 0)
(0.857671 0.00168862 0)
(1.14794 -0.000199162 0)
(0.857119 0.000278123 0)
(1.12302 -0.000693676 0)
(0.86719 0.000743164 0)
(1.10223 -0.000501406 0)
(0.879069 0.000677235 0)
(1.08454 -0.000689743 0)
(0.891007 0.00142036 0)
(1.06792 -0.00130553 0)
(0.902133 0.00284524 0)
(1.052 -0.0026735 0)
(0.911645 0.00443358 0)
(1.03365 -0.00375058 0)
(0.920621 0.00501812 0)
(1.00821 -0.00379687 0)
(0.935038 0.00560914 0)
(0.968877 -0.00431481 0)
(0.852803 -0.00136902 0)
(1.1454 0.00327608 0)
(0.88359 0.00168212 0)
(1.12258 -1.81066e-06 0)
(0.886868 0.000314817 0)
(1.09444 -0.000588642 0)
(0.899313 0.000775432 0)
(1.07067 -0.000450698 0)
(0.914217 0.000721078 0)
(1.05018 -0.000672172 0)
(0.929181 0.00149028 0)
(1.03089 -0.00131967 0)
(0.943003 0.00293012 0)
(1.01388 -0.00265807 0)
(0.954182 0.00452361 0)
(0.99805 -0.00361047 0)
(0.962208 0.00508072 0)
(0.982074 -0.00339502 0)
(0.967859 0.00559547 0)
(0.966282 -0.00252321 0)
(0.881001 -0.00141611 0)
(1.1127 0.00319262 0)
(0.914826 0.00173015 0)
(1.09086 9.63237e-05 0)
(0.921453 0.000436677 0)
(1.06169 -0.000574134 0)
(0.933872 0.000903955 0)
(1.0384 -0.000509308 0)
(0.947833 0.000870637 0)
(1.02007 -0.000771138 0)
(0.960105 0.00166675 0)
(1.00504 -0.00144218 0)
(0.969504 0.00309965 0)
(0.995075 -0.00273065 0)
(0.97515 0.00466962 0)
(0.988469 -0.00356768 0)
(0.97704 0.00516366 0)
(0.982397 -0.00312238 0)
(0.976081 0.00550667 0)
(0.975227 -0.00105496 0)
(0.912043 -0.00140663 0)
(1.07688 0.00304319 0)
(0.944529 0.00180227 0)
(1.05985 0.000119 0)
(0.952252 0.000615256 0)
(1.03357 -0.000604565 0)
(0.961496 0.00107158 0)
(1.01487 -0.000597886 0)
(0.971048 0.00103003 0)
(1.00248 -0.000862013 0)
(0.977838 0.0018097 0)
(0.994045 -0.00151359 0)
(0.981835 0.0031797 0)
(0.990476 -0.00272917 0)
(0.983478 0.00469009 0)
(0.988718 -0.00348537 0)
(0.983007 0.0051658 0)
(0.985507 -0.00290716 0)
(0.980901 0.00547517 0)
(0.979596 0.000173741 0)
(0.940903 -0.00134745 0)
(1.04474 0.00286913 0)
(0.967887 0.00186512 0)
(1.03525 0.000101618 0)
(0.974449 0.000797806 0)
(1.01498 -0.00062953 0)
(0.97917 0.00121612 0)
(1.00253 -0.000657792 0)
(0.983936 0.00113883 0)
(0.99594 -0.000898764 0)
(0.986444 0.00187989 0)
(0.992028 -0.00152311 0)
(0.987497 0.00317196 0)
(0.991353 -0.00267421 0)
(0.987819 0.00460793 0)
(0.99098 -0.00333703 0)
(0.986989 0.00504667 0)
(0.988399 -0.00259403 0)
(0.984856 0.00539599 0)
(0.983085 0.00131388 0)
(0.963992 -0.00125522 0)
(1.02094 0.0027106 0)
(0.983445 0.00189317 0)
(1.0192 7.05976e-05 0)
(0.987866 0.000946129 0)
(1.00568 -0.00062913 0)
(0.988984 0.00131359 0)
(0.998433 -0.000682411 0)
(0.990667 0.00119594 0)
(0.99547 -0.000900334 0)
(0.991168 0.00190439 0)
(0.993599 -0.00150916 0)
(0.991252 0.003129 0)
(0.993808 -0.00260561 0)
(0.991331 0.00448855 0)
(0.993755 -0.00314447 0)
(0.990482 0.00483783 0)
(0.991431 -0.00213958 0)
(0.98839 0.00519063 0)
(0.98661 0.00243273 0)
(0.980025 -0.00115246 0)
(1.00651 0.00258842 0)
(0.992475 0.00188037 0)
(1.01047 3.99283e-05 0)
(0.995 0.0010479 0)
(1.00252 -0.000610174 0)
(0.994406 0.00137035 0)
(0.998532 -0.000688108 0)
(0.994798 0.00122218 0)
(0.997302 -0.000890042 0)
(0.994753 0.00190897 0)
(0.996196 -0.00148853 0)
(0.994666 0.00307347 0)
(0.996632 -0.00252764 0)
(0.994706 0.00435425 0)
(0.996643 -0.00292571 0)
(0.993812 0.004595 0)
(0.994443 -0.00161374 0)
(0.991744 0.00492147 0)
(0.989995 0.00348747 0)
(0.989741 -0.00105826 0)
(0.999585 0.00250248 0)
(0.997303 0.00183891 0)
(1.00643 1.2239e-05 0)
(0.998612 0.0011091 0)
(1.00223 -0.000587609 0)
(0.997837 0.00140088 0)
(1.00003 -0.000688531 0)
(0.997941 0.00123374 0)
(0.999572 -0.000878063 0)
(0.997915 0.00190371 0)
(0.998807 -0.00146334 0)
(0.997863 0.00300773 0)
(0.999308 -0.0024324 0)
(0.997859 0.00419619 0)
(0.999302 -0.00266744 0)
(0.996859 0.00431911 0)
(0.997163 -0.00104112 0)
(0.994782 0.00462943 0)
(0.993032 0.00445496 0)
(0.994917 -0.000981985 0)
(0.997206 0.00244035 0)
(0.999907 0.00178671 0)
(1.00476 -1.41361e-05 0)
(1.00052 0.00114222 0)
(1.00277 -0.000571846 0)
(1.00028 0.00141551 0)
(1.0016 -0.00068937 0)
(1.00045 0.00123766 0)
(1.00154 -0.000866691 0)
(1.00057 0.00189041 0)
(1.00099 -0.00143318 0)
(1.00057 0.00293045 0)
(1.00153 -0.00231612 0)
(1.0005 0.00400895 0)
(1.00148 -0.00236225 0)
(0.999369 0.00400714 0)
(0.999374 -0.00043659 0)
(0.997278 0.00434811 0)
(0.995536 0.00530459 0)
(0.997379 -0.000924037 0)
(0.996906 0.00238815 0)
(1.00144 0.00173686 0)
(1.00406 -4.05075e-05 0)
(1.00157 0.00115843 0)
(1.00329 -0.000566258 0)
(1.00199 0.00141943 0)
(1.00277 -0.000691675 0)
(1.0023 0.00123574 0)
(1.00297 -0.000855337 0)
(1.00254 0.0018678 0)
(1.0026 -0.00139574 0)
(1.0026 0.00283777 0)
(1.00316 -0.00217493 0)
(1.00246 0.00379217 0)
(1.00307 -0.00201604 0)
(1.0012 0.00367298 0)
(1.00098 0.000181658 0)
(0.999128 0.00410466 0)
(0.997416 0.00600586 0)
(0.99846 -0.000880379 0)
(0.997252 0.00233692 0)
(1.0024 0.00169448 0)
(1.00374 -6.67764e-05 0)
(1.00216 0.00116552 0)
(1.00359 -0.000569692 0)
(1.00307 0.00141509 0)
(1.0035 -0.000694718 0)
(1.0035 0.00122797 0)
(1.00388 -0.000842439 0)
(1.00384 0.00183394 0)
(1.00366 -0.0013473 0)
(1.00392 0.00272443 0)
(1.00425 -0.00200366 0)
(1.00373 0.00354324 0)
(1.0041 -0.00163181 0)
(1.0024 0.00332427 0)
(1.00201 0.000806157 0)
(1.00039 0.00393598 0)
(0.998725 0.00655368 0)
(0.998928 -0.000846412 0)
(0.997646 0.00228314 0)
(1.00302 0.00165924 0)
(1.00357 -9.24286e-05 0)
(1.00246 0.00116815 0)
(1.00371 -0.000579374 0)
(1.00369 0.00140378 0)
(1.00389 -0.000697183 0)
(1.0042 0.00121362 0)
(1.00442 -0.000825718 0)
(1.0046 0.00178684 0)
(1.0043 -0.00128479 0)
(1.0047 0.00258864 0)
(1.0049 -0.00180446 0)
(1.00448 0.00326789 0)
(1.0047 -0.0012203 0)
(1.00313 0.00297857 0)
(1.00263 0.00140808 0)
(1.00121 0.00386618 0)
(0.999606 0.0069591 0)
(0.999149 -0.000818694 0)
(0.997932 0.00222646 0)
(1.0034 0.00162895 0)
(1.00348 -0.000117472 0)
(1.0026 0.00116852 0)
(1.00373 -0.00059232 0)
(1.004 0.00138615 0)
(1.00408 -0.000697509 0)
(1.00457 0.00119138 0)
(1.00471 -0.000802241 0)
(1.005 0.00172385 0)
(1.00466 -0.00120531 0)
(1.00511 0.00243068 0)
(1.00527 -0.00158354 0)
(1.00489 0.00297906 0)
(1.00502 -0.000805553 0)
(1.00357 0.00267219 0)
(1.00297 0.00194554 0)
(1.00176 0.00388988 0)
(1.00022 0.00723438 0)
(0.999274 -0.000795122 0)
(0.99811 0.00216777 0)
(1.00363 0.00160115 0)
(1.00342 -0.000141938 0)
(1.00266 0.00116707 0)
(1.00371 -0.000605936 0)
(1.00416 0.00136246 0)
(1.00416 -0.000693981 0)
(1.00475 0.00115966 0)
(1.00486 -0.000769189 0)
(1.00521 0.00164295 0)
(1.00486 -0.00110761 0)
(1.00532 0.00225092 0)
(1.00548 -0.00134326 0)
(1.00512 0.00268324 0)
(1.00518 -0.000403042 0)
(1.00386 0.00242555 0)
(1.00318 0.00240482 0)
(1.00216 0.00399697 0)
(1.0007 0.00740913 0)
(0.999364 -0.000774595 0)
(0.998212 0.00210842 0)
(1.00376 0.00157341 0)
(1.00337 -0.000165618 0)
(1.00269 0.00116347 0)
(1.00369 -0.000618301 0)
(1.00423 0.0013323 0)
(1.00419 -0.000683663 0)
(1.00484 0.00111551 0)
(1.00493 -0.000722935 0)
(1.00531 0.00154268 0)
(1.00497 -0.00099247 0)
(1.00544 0.00205316 0)
(1.00559 -0.00109214 0)
(1.00526 0.002393 0)
(1.00526 -2.41289e-05 0)
(1.00407 0.00224319 0)
(1.00333 0.00278459 0)
(1.00249 0.00417077 0)
(1.00112 0.00752101 0)
(0.999441 -0.000756585 0)
(0.998267 0.00204964 0)
(1.00383 0.00154408 0)
(1.00333 -0.000188929 0)
(1.00271 0.00115639 0)
(1.00366 -0.00062752 0)
(1.00427 0.00129357 0)
(1.00418 -0.000663168 0)
(1.00489 0.00105719 0)
(1.00496 -0.000663103 0)
(1.00536 0.00142478 0)
(1.00502 -0.000862232 0)
(1.0055 0.00184173 0)
(1.00565 -0.000838176 0)
(1.00536 0.00211876 0)
(1.00529 0.000326844 0)
(1.00425 0.00213276 0)
(1.00347 0.00310082 0)
(1.00279 0.00439237 0)
(1.00151 0.00759994 0)
(0.999516 -0.000740871 0)
(0.998293 0.00199259 0)
(1.00387 0.0015116 0)
(1.00329 -0.000211388 0)
(1.00273 0.00114415 0)
(1.00362 -0.00063181 0)
(1.00429 0.00124471 0)
(1.00416 -0.000632171 0)
(1.00492 0.000985671 0)
(1.00497 -0.000591413 0)
(1.00539 0.00129182 0)
(1.00505 -0.00072226 0)
(1.00553 0.00162676 0)
(1.00568 -0.000594892 0)
(1.00544 0.00187548 0)
(1.00532 0.000639228 0)
(1.00442 0.00209269 0)
(1.00361 0.00336503 0)
(1.00308 0.00463608 0)
(1.00189 0.00765927 0)
(0.999591 -0.0007275 0)
(0.998304 0.0019385 0)
(1.00389 0.00147457 0)
(1.00324 -0.000231148 0)
(1.00274 0.00112587 0)
(1.00359 -0.000629515 0)
(1.00431 0.00118419 0)
(1.00413 -0.000589482 0)
(1.00494 0.000898554 0)
(1.00497 -0.000506451 0)
(1.00541 0.00114456 0)
(1.00506 -0.000578064 0)
(1.00556 0.00141772 0)
(1.00569 -0.000376723 0)
(1.00552 0.00167857 0)
(1.00534 0.000902072 0)
(1.00458 0.00210644 0)
(1.00376 0.00358337 0)
(1.00335 0.00488086 0)
(1.00227 0.00770584 0)
(0.999665 -0.000716647 0)
(0.99831 0.00188846 0)
(1.0039 0.00143217 0)
(1.0032 -0.000246992 0)
(1.00275 0.00109896 0)
(1.00355 -0.000617036 0)
(1.00433 0.0011096 0)
(1.0041 -0.000532752 0)
(1.00496 0.000795382 0)
(1.00496 -0.000410781 0)
(1.00542 0.000987857 0)
(1.00506 -0.0004364 0)
(1.00559 0.00121981 0)
(1.0057 -0.000186941 0)
(1.00559 0.0015245 0)
(1.00536 0.00112025 0)
(1.00474 0.00216355 0)
(1.00392 0.00377415 0)
(1.00363 0.00512294 0)
(1.00264 0.00775037 0)
(0.999736 -0.000708688 0)
(0.998317 0.00184398 0)
(1.0039 0.00138188 0)
(1.00316 -0.00025771 0)
(1.00275 0.00106101 0)
(1.00352 -0.000593314 0)
(1.00434 0.00102102 0)
(1.00406 -0.000462482 0)
(1.00498 0.000679432 0)
(1.00494 -0.000311231 0)
(1.00544 0.000830792 0)
(1.00505 -0.000307575 0)
(1.00561 0.00104179 0)
(1.00571 -2.92213e-05 0)
(1.00566 0.0014053 0)
(1.00539 0.00130485 0)
(1.00491 0.002256 0)
(1.0041 0.00395536 0)
(1.00391 0.00536414 0)
(1.00302 0.00780175 0)
(0.9998 -0.000703498 0)
(0.998331 0.00180632 0)
(1.00388 0.00132128 0)
(1.00313 -0.000261314 0)
(1.00275 0.00101115 0)
(1.00349 -0.000559862 0)
(1.00434 0.000918525 0)
(1.00403 -0.000380441 0)
(1.00499 0.000553779 0)
(1.00493 -0.000214864 0)
(1.00544 0.00068304 0)
(1.00505 -0.000201356 0)
(1.00563 0.00088926 0)
(1.00572 9.52727e-05 0)
(1.00574 0.00131331 0)
(1.00544 0.00146536 0)
(1.00508 0.00237272 0)
(1.0043 0.00413687 0)
(1.00419 0.00560595 0)
(1.00339 0.00786758 0)
(0.999854 -0.000702072 0)
(0.998355 0.00177734 0)
(1.00386 0.00124944 0)
(1.0031 -0.000255831 0)
(1.00274 0.000948694 0)
(1.00346 -0.000514975 0)
(1.00434 0.000803237 0)
(1.004 -0.000292376 0)
(1.00499 0.000427583 0)
(1.00493 -0.000129522 0)
(1.00544 0.000546838 0)
(1.00505 -0.000122911 0)
(1.00564 0.000759752 0)
(1.00574 0.000192953 0)
(1.00582 0.00123998 0)
(1.00551 0.00160493 0)
(1.00526 0.00249585 0)
(1.00453 0.00431865 0)
(1.00447 0.00584561 0)
(1.00376 0.00795767 0)
(0.999893 -0.000705021 0)
(0.998393 0.0017584 0)
(1.00382 0.0011618 0)
(1.00309 -0.000241664 0)
(1.00272 0.000871153 0)
(1.00345 -0.000456992 0)
(1.00434 0.000675656 0)
(1.00398 -0.000199361 0)
(1.00499 0.00030283 0)
(1.00492 -5.62683e-05 0)
(1.00544 0.000428872 0)
(1.00506 -6.39776e-05 0)
(1.00565 0.000648735 0)
(1.00577 0.000270076 0)
(1.0059 0.00117795 0)
(1.00559 0.00172082 0)
(1.00544 0.00260712 0)
(1.00477 0.00449035 0)
(1.00475 0.006085 0)
(1.00412 0.00809802 0)
(0.999917 -0.000709542 0)
(0.998447 0.00174582 0)
(1.00376 0.00106112 0)
(1.00309 -0.000221925 0)
(1.00269 0.000782133 0)
(1.00344 -0.000397436 0)
(1.00432 0.000549819 0)
(1.00397 -0.000118921 0)
(1.00497 0.000198805 0)
(1.00493 -1.20219e-05 0)
(1.00542 0.000345725 0)
(1.00508 -4.24176e-05 0)
(1.00566 0.000567334 0)
(1.00581 0.000302238 0)
(1.00597 0.00114021 0)
(1.00569 0.00177973 0)
(1.00563 0.00268597 0)
(1.00504 0.00455201 0)
(1.00504 0.00629265 0)
(1.00449 0.00827431 0)
(0.999923 -0.000719581 0)
(0.998515 0.00174696 0)
(1.00369 0.000945668 0)
(1.0031 -0.000190489 0)
(1.00265 0.000681985 0)
(1.00344 -0.00033003 0)
(1.00429 0.000420603 0)
(1.00397 -4.70442e-05 0)
(1.00495 0.000107675 0)
(1.00494 1.05888e-05 0)
(1.0054 0.000277596 0)
(1.0051 -4.09759e-05 0)
(1.00566 0.000486003 0)
(1.00585 0.000320851 0)
(1.00605 0.00108526 0)
(1.00581 0.00181204 0)
(1.00582 0.00269605 0)
(1.00534 0.00451286 0)
(1.00536 0.00632795 0)
(1.00487 0.00827701 0)
(0.999916 -0.000735336 0)
(0.998594 0.001764 0)
(1.0036 0.000813126 0)
(1.00311 -0.000154643 0)
(1.00259 0.000577085 0)
(1.00345 -0.000266517 0)
(1.00425 0.000306186 0)
(1.00397 -6.33331e-07 0)
(1.00491 4.2285e-05 0)
(1.00496 -2.46589e-06 0)
(1.00537 0.000234513 0)
(1.00512 -5.95286e-05 0)
(1.00565 0.000413709 0)
(1.0059 0.00033594 0)
(1.00613 0.00101125 0)
(1.00593 0.00181706 0)
(1.00601 0.00274853 0)
(1.00564 0.00453455 0)
(1.00569 0.0063727 0)
(1.00528 0.00832682 0)
(0.999898 -0.000751235 0)
(0.998681 0.00178824 0)
(1.00351 0.000670498 0)
(1.00314 -0.000119818 0)
(1.00252 0.000470105 0)
(1.00346 -0.000218739 0)
(1.0042 0.000214733 0)
(1.00397 1.75338e-05 0)
(1.00486 7.68212e-06 0)
(1.00499 -3.92738e-05 0)
(1.00533 0.000189566 0)
(1.00514 -7.26701e-05 0)
(1.00565 0.000349216 0)
(1.00595 0.000352598 0)
(1.0062 0.0010536 0)
(1.00608 0.00191995 0)
(1.00621 0.00295825 0)
(1.00596 0.00466568 0)
(1.00602 0.00654285 0)
(1.0057 0.00845393 0)
(0.999877 -0.000773884 0)
(0.998766 0.00182744 0)
(1.0034 0.000521655 0)
(1.00316 -8.61347e-05 0)
(1.00246 0.000368206 0)
(1.00346 -0.000187451 0)
(1.00415 0.000139662 0)
(1.00398 2.30007e-05 0)
(1.00481 -1.93925e-05 0)
(1.00501 -6.73244e-05 0)
(1.00529 0.000131981 0)
(1.00517 -4.56827e-05 0)
(1.00564 0.000340416 0)
(1.00602 0.00048281 0)
(1.0063 0.00122457 0)
(1.00624 0.00216386 0)
(1.00642 0.0031964 0)
(1.0063 0.00481921 0)
(1.00638 0.00668624 0)
(1.00612 0.00855892 0)
(0.999857 -0.000799624 0)
(0.998845 0.00187699 0)
(1.00329 0.000369323 0)
(1.00319 -6.68722e-05 0)
(1.00239 0.000282518 0)
(1.00347 -0.000189794 0)
(1.00409 9.33057e-05 0)
(1.00398 -7.35297e-06 0)
(1.00476 -3.10395e-05 0)
(1.00502 -9.4195e-05 0)
(1.00525 0.000104432 0)
(1.00519 3.80531e-05 0)
(1.00565 0.000442451 0)
(1.0061 0.000668652 0)
(1.0064 0.00139062 0)
(1.00641 0.00237385 0)
(1.00663 0.00337753 0)
(1.00663 0.00490275 0)
(1.00674 0.00672225 0)
(1.00653 0.00855424 0)
(0.999845 -0.000825627 0)
(0.998913 0.00192882 0)
(1.00318 0.00021606 0)
(1.0032 -6.60577e-05 0)
(1.00232 0.000214418 0)
(1.00347 -0.000217645 0)
(1.00404 5.83663e-05 0)
(1.00398 -3.4994e-05 0)
(1.00471 -5.16353e-05 0)
(1.00504 -7.48252e-05 0)
(1.00522 0.000128956 0)
(1.00522 0.000177146 0)
(1.00566 0.000573374 0)
(1.00617 0.000818653 0)
(1.00651 0.00150657 0)
(1.00658 0.00252926 0)
(1.00683 0.00354135 0)
(1.00696 0.00497002 0)
(1.00711 0.00671313 0)
(1.00695 0.0084939 0)
(0.999841 -0.00085481 0)
(0.998965 0.00198375 0)
(1.00308 6.63911e-05 0)
(1.00321 -9.60743e-05 0)
(1.00225 0.000173514 0)
(1.00346 -0.0002765 0)
(1.004 3.67862e-05 0)
(1.00397 -4.56944e-05 0)
(1.00466 -6.94979e-05 0)
(1.00505 8.05803e-06 0)
(1.00521 0.000209145 0)
(1.00525 0.00031016 0)
(1.00568 0.00069825 0)
(1.00624 0.000965404 0)
(1.00662 0.00160032 0)
(1.00677 0.00265136 0)
(1.00705 0.00369799 0)
(1.00728 0.0050506 0)
(1.00749 0.00668804 0)
(1.00736 0.00839476 0)
(0.999847 -0.000882871 0)
(0.999002 0.00203284 0)
(1.00297 -5.94199e-05 0)
(1.00321 -0.000167109 0)
(1.00219 0.000152449 0)
(1.00344 -0.000355977 0)
(1.00396 1.69561e-05 0)
(1.00395 -4.11871e-05 0)
(1.00463 -5.38528e-05 0)
(1.00506 0.000131551 0)
(1.00519 0.000302841 0)
(1.00528 0.000425128 0)
(1.0057 0.000813126 0)
(1.00631 0.00111399 0)
(1.00675 0.0016912 0)
(1.00696 0.00274169 0)
(1.00727 0.00382952 0)
(1.0076 0.00513122 0)
(1.00786 0.00664906 0)
(1.00777 0.00825641 0)
(0.999863 -0.000909117 0)
(0.999025 0.00207107 0)
(1.00286 -0.000143578 0)
(1.0032 -0.000278078 0)
(1.00213 0.000151599 0)
(1.00341 -0.000439802 0)
(1.00393 -1.37996e-05 0)
(1.00393 8.37663e-06 0)
(1.00461 1.32337e-05 0)
(1.00506 0.000275694 0)
(1.00518 0.000415702 0)
(1.00531 0.000519446 0)
(1.00573 0.000918301 0)
(1.00637 0.00126299 0)
(1.00687 0.00179869 0)
(1.00716 0.00280954 0)
(1.00751 0.00393117 0)
(1.00791 0.00519878 0)
(1.00822 0.00660383 0)
(1.00817 0.00809565 0)
(0.999884 -0.000934169 0)
(0.999036 0.00209426 0)
(1.00275 -0.000182041 0)
(1.00319 -0.000418903 0)
(1.00207 0.0001514 0)
(1.00337 -0.000518811 0)
(1.00391 -2.96714e-05 0)
(1.0039 0.000126338 0)
(1.00459 0.000106398 0)
(1.00507 0.000415757 0)
(1.00517 0.00054979 0)
(1.00533 0.000607668 0)
(1.00577 0.00101289 0)
(1.00644 0.00141084 0)
(1.007 0.00192142 0)
(1.00737 0.00286537 0)
(1.00776 0.00399843 0)
(1.00821 0.00524106 0)
(1.00857 0.0065523 0)
(1.00856 0.00792511 0)
(0.99991 -0.000953347 0)
(0.999039 0.00209221 0)
(1.00263 -0.000175328 0)
(1.00317 -0.000583716 0)
(1.00202 0.00015722 0)
(1.00332 -0.00058069 0)
(1.0039 -2.30621e-05 0)
(1.00388 0.000273535 0)
(1.00458 0.000186411 0)
(1.00508 0.000514191 0)
(1.00516 0.000681398 0)
(1.00535 0.000695615 0)
(1.00583 0.00109284 0)
(1.00651 0.00155552 0)
(1.00713 0.00205366 0)
(1.00758 0.00291818 0)
(1.00802 0.00402726 0)
(1.00852 0.00524777 0)
(1.00892 0.00648836 0)
(1.00893 0.00775209 0)
(0.999937 -0.000966913 0)
(0.999038 0.00206554 0)
(1.0025 -0.000138419 0)
(1.00314 -0.00074772 0)
(1.00197 0.000175098 0)
(1.00328 -0.000597923 0)
(1.00391 -3.21295e-05 0)
(1.00386 0.000405095 0)
(1.00456 0.000257166 0)
(1.00508 0.000577564 0)
(1.00515 0.000811417 0)
(1.00536 0.000799334 0)
(1.00589 0.00115975 0)
(1.00659 0.00168448 0)
(1.00725 0.00219034 0)
(1.00778 0.00297523 0)
(1.00829 0.00402678 0)
(1.00883 0.00522118 0)
(1.00925 0.00641231 0)
(1.00928 0.00758505 0)
(0.999964 -0.00097562 0)
(0.999037 0.00201058 0)
(1.00235 -7.3658e-05 0)
(1.00312 -0.000886143 0)
(1.00193 0.000191961 0)
(1.00322 -0.000567374 0)
(1.00393 -5.34992e-05 0)
(1.00384 0.000534071 0)
(1.00453 0.000344173 0)
(1.0051 0.000630444 0)
(1.00514 0.000945019 0)
(1.00537 0.000927864 0)
(1.00595 0.00121797 0)
(1.00669 0.00178326 0)
(1.00737 0.00232562 0)
(1.00798 0.00304357 0)
(1.00856 0.00401212 0)
(1.00914 0.00516363 0)
(1.00959 0.00631551 0)
(1.00963 0.00741512 0)
(0.99999 -0.000975872 0)
(0.999038 0.00192517 0)
(1.0022 1.38421e-05 0)
(1.00309 -0.000996947 0)
(1.00189 0.000210166 0)
(1.00317 -0.000506564 0)
(1.00395 -7.93488e-05 0)
(1.00383 0.000664034 0)
(1.00451 0.000455698 0)
(1.00512 0.000669267 0)
(1.00515 0.00106521 0)
(1.00537 0.00107653 0)
(1.00601 0.0012817 0)
(1.00679 0.00185187 0)
(1.0075 0.00245165 0)
(1.00816 0.00312876 0)
(1.00882 0.00400179 0)
(1.00946 0.00508232 0)
(1.00993 0.00618986 0)
(1.00996 0.00722857 0)
(1.00001 -0.000970087 0)
(0.999043 0.00181681 0)
(1.00204 0.00011599 0)
(1.00305 -0.00107112 0)
(1.00187 0.000226316 0)
(1.0031 -0.000419103 0)
(1.00398 -0.000105857 0)
(1.00383 0.00078136 0)
(1.00447 0.000587426 0)
(1.00514 0.000696426 0)
(1.00516 0.00116159 0)
(1.00537 0.00124086 0)
(1.00607 0.00136371 0)
(1.0069 0.00189919 0)
(1.00765 0.0025517 0)
(1.00835 0.00322286 0)
(1.00907 0.00400822 0)
(1.00977 0.00499321 0)
(1.01026 0.00604092 0)
(1.01029 0.00702449 0)
(1.00004 -0.000957151 0)
(0.999054 0.00168231 0)
(1.00188 0.000230487 0)
(1.00301 -0.00111105 0)
(1.00185 0.000235866 0)
(1.00304 -0.00029696 0)
(1.00401 -0.000115117 0)
(1.00384 0.000884195 0)
(1.00443 0.000742341 0)
(1.00515 0.000727636 0)
(1.00519 0.00122958 0)
(1.00537 0.00140547 0)
(1.00612 0.001465 0)
(1.00703 0.0019332 0)
(1.0078 0.0026141 0)
(1.00853 0.00330453 0)
(1.00931 0.00402517 0)
(1.01008 0.0049041 0)
(1.0106 0.00587359 0)
(1.01062 0.00680235 0)
(1.00006 -0.00093128 0)
(0.999072 0.00152607 0)
(1.00171 0.000347049 0)
(1.00297 -0.00111476 0)
(1.00185 0.000235647 0)
(1.00297 -0.000148326 0)
(1.00405 -0.000104264 0)
(1.00386 0.000963045 0)
(1.00439 0.000916988 0)
(1.00517 0.000778715 0)
(1.00524 0.00127758 0)
(1.00538 0.00156175 0)
(1.00616 0.00158979 0)
(1.00715 0.00196504 0)
(1.00797 0.00263907 0)
(1.00872 0.00335234 0)
(1.00954 0.0040326 0)
(1.01036 0.00480826 0)
(1.01093 0.00568374 0)
(1.01094 0.00655251 0)
(1.00007 -0.000918368 0)
(0.999099 0.00138083 0)
(1.00155 0.000434842 0)
(1.00292 -0.00109787 0)
(1.00186 0.000253308 0)
(1.00291 5.78147e-05 0)
(1.00408 -5.30165e-05 0)
(1.00391 0.00100637 0)
(1.00434 0.00108311 0)
(1.00517 0.000842698 0)
(1.0053 0.00129737 0)
(1.00541 0.00169847 0)
(1.00619 0.00173859 0)
(1.00727 0.00201411 0)
(1.00816 0.00264308 0)
(1.00892 0.00336936 0)
(1.00976 0.00402866 0)
(1.01063 0.004714 0)
(1.01124 0.00548566 0)
(1.01126 0.00628354 0)
(1.00009 -0.000877614 0)
(0.999133 0.00116098 0)
(1.00138 0.000514885 0)
(1.00287 -0.001093 0)
(1.00188 0.000314483 0)
(1.00284 0.000335457 0)
(1.00411 2.24048e-05 0)
(1.00396 0.00102591 0)
(1.0043 0.00124168 0)
(1.00517 0.000929634 0)
(1.00537 0.00129031 0)
(1.00545 0.00179286 0)
(1.00622 0.00188565 0)
(1.00737 0.00207067 0)
(1.00834 0.00262161 0)
(1.00913 0.00334289 0)
(1.00998 0.00399466 0)
(1.01089 0.00461075 0)
(1.01154 0.0052795 0)
(1.01157 0.00599569 0)
(1.0001 -0.000838596 0)
(0.999176 0.00094265 0)
(1.00123 0.000448009 0)
(1.00282 -0.00112315 0)
(1.00193 0.000493838 0)
(1.00278 0.000699498 0)
(1.00412 0.00014309 0)
(1.00403 0.00104328 0)
(1.00427 0.00140924 0)
(1.00515 0.00106567 0)
(1.00545 0.00130161 0)
(1.00552 0.00186098 0)
(1.00625 0.00203774 0)
(1.00746 0.00215317 0)
(1.00853 0.00260664 0)
(1.00936 0.00329925 0)
(1.01021 0.00394846 0)
(1.01113 0.00451737 0)
(1.01182 0.00509296 0)
(1.01187 0.00571982 0)
(1.00011 -0.000766284 0)
(0.999216 0.000674992 0)
(1.00109 0.00047636 0)
(1.00282 -0.0010623 0)
(1.00203 0.000636557 0)
(1.00271 0.00104907 0)
(1.0041 0.000334124 0)
(1.00411 0.00107313 0)
(1.00426 0.00157645 0)
(1.00512 0.00124845 0)
(1.00553 0.00135215 0)
(1.00561 0.00191572 0)
(1.0063 0.00218366 0)
(1.00755 0.00226125 0)
(1.00871 0.00260994 0)
(1.0096 0.0032447 0)
(1.01044 0.00388386 0)
(1.01136 0.00442217 0)
(1.01208 0.00491878 0)
(1.01216 0.00545398 0)
(1.0001 -0.000695691 0)
(0.999276 0.000525477 0)
(1.00099 0.000692728 0)
(1.0028 -0.00092651 0)
(1.00214 0.000550588 0)
(1.00266 0.00122397 0)
(1.00408 0.000502964 0)
(1.0042 0.00104997 0)
(1.00427 0.00166292 0)
(1.00509 0.00139883 0)
(1.00561 0.00138171 0)
(1.00573 0.00191242 0)
(1.00636 0.00225949 0)
(1.00762 0.00234311 0)
(1.00888 0.00259585 0)
(1.00984 0.00314885 0)
(1.01069 0.0037642 0)
(1.01159 0.0042859 0)
(1.01232 0.00472445 0)
(1.01243 0.00517667 0)
(1.00011 -0.000708868 0)
(0.999342 0.000617945 0)
(1.00087 0.000844375 0)
(1.00275 -0.000885606 0)
(1.00225 0.00032791 0)
(1.00262 0.00125243 0)
(1.00402 0.000620298 0)
(1.00428 0.00099719 0)
(1.0043 0.0017088 0)
(1.00505 0.00156301 0)
(1.00566 0.00144476 0)
(1.00585 0.00189407 0)
(1.00644 0.0022906 0)
(1.00768 0.00240248 0)
(1.00902 0.00256989 0)
(1.01006 0.00301681 0)
(1.01093 0.00357976 0)
(1.01181 0.004081 0)
(1.01254 0.00447644 0)
(1.01266 0.00485727 0)
(1.00011 -0.000596106 0)
(0.999417 0.000364939 0)
(1.00072 0.000826933 0)
(1.00265 -0.000598857 0)
(1.00236 0.000435154 0)
(1.0026 0.00151243 0)
(1.00396 0.000910222 0)
(1.00435 0.00107262 0)
(1.00433 0.00179385 0)
(1.005 0.00177127 0)
(1.00567 0.00157754 0)
(1.00594 0.001906 0)
(1.00651 0.00233322 0)
(1.00772 0.00249828 0)
(1.00911 0.00261586 0)
(1.01024 0.00295992 0)
(1.01115 0.00345098 0)
(1.01202 0.00391987 0)
(1.01273 0.00428031 0)
(1.01286 0.00460063 0)
(1.0001 -0.000468508 0)
(0.999485 0.000113046 0)
(1.00068 0.000814331 0)
(1.00264 -0.000286287 0)
(1.0025 0.000569956 0)
(1.00261 0.00174078 0)
(1.00388 0.00121336 0)
(1.0044 0.00119137 0)
(1.0044 0.00187477 0)
(1.00497 0.00197785 0)
(1.00568 0.00175329 0)
(1.00605 0.0019527 0)
(1.00662 0.00236748 0)
(1.00779 0.002579 0)
(1.00921 0.00266779 0)
(1.01041 0.00291648 0)
(1.01138 0.00331916 0)
(1.01224 0.00373947 0)
(1.01293 0.00406668 0)
(1.01305 0.00433832 0)
(1.00009 -0.000437578 0)
(0.999566 0.00020477 0)
(1.00062 0.000999115 0)
(1.00257 -0.000150454 0)
(1.00263 0.000458777 0)
(1.00264 0.00172015 0)
(1.0038 0.00138707 0)
(1.00444 0.00124749 0)
(1.00447 0.00186414 0)
(1.00494 0.00208975 0)
(1.00566 0.00187666 0)
(1.00613 0.00196412 0)
(1.00672 0.00231763 0)
(1.00784 0.00254467 0)
(1.00927 0.0026164 0)
(1.01055 0.00278365 0)
(1.01156 0.00309478 0)
(1.01243 0.00345559 0)
(1.0131 0.00374924 0)
(1.01321 0.00398258 0)
(1.00008 -0.000373305 0)
(0.999647 0.000275107 0)
(1.00056 0.00112415 0)
(1.00248 9.69845e-07 0)
(1.00273 0.00041296 0)
(1.00268 0.00173263 0)
(1.0037 0.00159952 0)
(1.00444 0.00134289 0)
(1.00454 0.0018359 0)
(1.00492 0.00215341 0)
(1.00562 0.00199539 0)
(1.00618 0.00199629 0)
(1.00681 0.00226703 0)
(1.0079 0.00248893 0)
(1.00932 0.00255932 0)
(1.01064 0.00266917 0)
(1.01172 0.00290115 0)
(1.0126 0.00319893 0)
(1.01325 0.00345413 0)
(1.01335 0.00365088 0)
(1.00007 -0.000269921 0)
(0.999724 0.000224979 0)
(1.00049 0.00115678 0)
(1.00236 0.000244518 0)
(1.00282 0.00045492 0)
(1.00274 0.00177427 0)
(1.00361 0.00186379 0)
(1.0044 0.00155189 0)
(1.00459 0.00190494 0)
(1.00491 0.00226956 0)
(1.00556 0.00218399 0)
(1.00618 0.00210577 0)
(1.00686 0.00226455 0)
(1.00793 0.0024452 0)
(1.00933 0.00250347 0)
(1.01069 0.00256499 0)
(1.01182 0.0027237 0)
(1.01273 0.00295334 0)
(1.01337 0.00316073 0)
(1.01345 0.00331694 0)
(1.00006 -0.000156481 0)
(0.999802 0.000104433 0)
(1.00046 0.00117562 0)
(1.00225 0.00059557 0)
(1.0029 0.000609305 0)
(1.00283 0.00185304 0)
(1.00353 0.00213393 0)
(1.00434 0.0018006 0)
(1.00463 0.00198674 0)
(1.00491 0.0023387 0)
(1.0055 0.00232601 0)
(1.00614 0.0022087 0)
(1.00688 0.00226101 0)
(1.00795 0.00238178 0)
(1.00934 0.00241999 0)
(1.01072 0.00244385 0)
(1.0119 0.0025385 0)
(1.01283 0.00269934 0)
(1.01346 0.00285324 0)
(1.01353 0.0029651 0)
(1.00004 -8.01201e-05 0)
(0.999879 0.00013051 0)
(1.00048 0.00125354 0)
(1.00215 0.00089472 0)
(1.00296 0.000771379 0)
(1.00293 0.00188984 0)
(1.00347 0.00233975 0)
(1.00426 0.0020496 0)
(1.00464 0.00209718 0)
(1.00492 0.00240104 0)
(1.00544 0.00245398 0)
(1.00609 0.00233632 0)
(1.00687 0.00229824 0)
(1.00795 0.00233598 0)
(1.00932 0.00233069 0)
(1.01072 0.00230766 0)
(1.01194 0.00233647 0)
(1.01289 0.00242276 0)
(1.01352 0.00251623 0)
(1.01357 0.0025793 0)
(1.00003 -2.89233e-05 0)
(0.999954 0.000259674 0)
(1.00049 0.00131561 0)
(1.00204 0.0011347 0)
(1.00298 0.000938317 0)
(1.00303 0.00190711 0)
(1.00343 0.00249193 0)
(1.00415 0.00229756 0)
(1.00461 0.0022314 0)
(1.00491 0.00245071 0)
(1.00538 0.00253371 0)
(1.006 0.0024313 0)
(1.00681 0.00232594 0)
(1.0079 0.00227705 0)
(1.00926 0.00221362 0)
(1.01067 0.00213829 0)
(1.01192 0.00210406 0)
(1.0129 0.00211995 0)
(1.01353 0.00215418 0)
(1.01357 0.0021729 0)
(1.00003 9.78233e-05 0)
(1.00002 0.000310738 0)
(1.00051 0.00131437 0)
(1.00194 0.00132285 0)
(1.00298 0.00111075 0)
(1.00312 0.00192447 0)
(1.0034 0.00258653 0)
(1.00403 0.00251865 0)
(1.00454 0.00238009 0)
(1.00487 0.00249855 0)
(1.0053 0.00257335 0)
(1.00589 0.00248578 0)
(1.0067 0.00233426 0)
(1.00779 0.00220142 0)
(1.00916 0.00206146 0)
(1.01058 0.00191885 0)
(1.01185 0.00181085 0)
(1.01285 0.00175301 0)
(1.01349 0.00172232 0)
(1.01352 0.00169233 0)
(1.00001 8.89573e-05 0)
(1.00005 0.00058642 0)
(1.00053 0.00146672 0)
(1.00183 0.00158871 0)
(1.00294 0.00139545 0)
(1.0032 0.00204051 0)
(1.00339 0.00273477 0)
(1.0039 0.00278433 0)
(1.00443 0.00261403 0)
(1.0048 0.00261847 0)
(1.00521 0.00264859 0)
(1.00575 0.00255901 0)
(1.00654 0.00237689 0)
(1.00763 0.00216687 0)
(1.00899 0.00194101 0)
(1.01041 0.00171996 0)
(1.01171 0.00153638 0)
(1.01273 0.00140788 0)
(1.01339 0.00131832 0)
(1.01341 0.0012397 0)
(1.00001 0.000208659 0)
(1.00012 0.000519804 0)
(1.00052 0.00144938 0)
(1.00171 0.00185294 0)
(1.00287 0.00173883 0)
(1.00324 0.00222261 0)
(1.00337 0.00290165 0)
(1.00376 0.00304595 0)
(1.00427 0.00287673 0)
(1.00467 0.00278644 0)
(1.00507 0.00275465 0)
(1.00557 0.00264816 0)
(1.00633 0.00243884 0)
(1.00739 0.00215741 0)
(1.00874 0.00183919 0)
(1.01017 0.00152244 0)
(1.01149 0.00125399 0)
(1.01255 0.00104459 0)
(1.01321 0.0008901 0)
(1.01325 0.000755107 0)
(0.999997 0.000300856 0)
(1.00013 0.000498392 0)
(1.00061 0.00147242 0)
(1.00168 0.00213618 0)
(1.00282 0.00212363 0)
(1.00328 0.00246879 0)
(1.00339 0.00308865 0)
(1.00366 0.00331459 0)
(1.00411 0.00317673 0)
(1.00453 0.0030223 0)
(1.00493 0.00291575 0)
(1.0054 0.00276005 0)
(1.00609 0.00250407 0)
(1.00711 0.00214511 0)
(1.00843 0.00172974 0)
(1.00986 0.00130665 0)
(1.0112 0.000936121 0)
(1.01229 0.000636402 0)
(1.01298 0.000400598 0)
(1.01303 0.000206762 0)
(0.999997 0.00030406 0)
(1.00018 0.000818525 0)
(1.00067 0.00167057 0)
(1.00164 0.00237664 0)
(1.00273 0.0024656 0)
(1.00327 0.00271863 0)
(1.00338 0.0032525 0)
(1.00354 0.00354678 0)
(1.00392 0.00346336 0)
(1.00433 0.00326176 0)
(1.00473 0.00307239 0)
(1.00515 0.00284415 0)
(1.00579 0.00252832 0)
(1.00675 0.00210123 0)
(1.00803 0.00159815 0)
(1.00945 0.0010787 0)
(1.01081 0.000600167 0)
(1.01194 0.000202882 0)
(1.01266 -0.000122171 0)
(1.01273 -0.000390195 0)
(0.999993 0.000362574 0)
(1.00018 0.00104907 0)
(1.00071 0.00182986 0)
(1.00159 0.0025514 0)
(1.00262 0.00275945 0)
(1.00322 0.00296425 0)
(1.00335 0.00342122 0)
(1.00342 0.00377213 0)
(1.0037 0.0037672 0)
(1.00407 0.00354888 0)
(1.00445 0.00327923 0)
(1.00484 0.00297015 0)
(1.00541 0.00258233 0)
(1.0063 0.00207751 0)
(1.00752 0.00148018 0)
(1.00891 0.000837648 0)