/*--------------------------------*- C++ -*----------------------------------*\
| =========                 |                                                 |
| \\      /  F ield         | OpenFOAM: The Open Source CFD Toolbox           |
|  \\    /   O peration     | Version:  v2012                                 |
|   \\  /    A nd           | Website:  www.openfoam.com                      |
|    \\/     M anipulation  |                                                 |
\*---------------------------------------------------------------------------*/
FoamFile
{
    version     2.0;
    format      ascii;
    class       volScalarField;
    location    "1.15";
    object      p;
}
// * * * * * * * * * * * * * * * * * * * * * * * * * * * * * * * * * * * * * //

dimensions      [0 2 -2 0 0 0 0];


internalField   nonuniform List<scalar> 
17600
(
-1.09089e-10
-0.000953897
-0.000751477
-0.00150281
-0.00153868
-0.00289053
-0.00326867
-0.00401088
-0.00459569
-0.00446368
-0.00533177
-0.00517203
-0.00557022
-0.00554102
-0.00554583
-0.0050209
-0.00449471
-0.00304791
-0.00118556
0.00244812
1.53243e-07
-0.000954277
-0.000750999
-0.001505
-0.00153749
-0.00289435
-0.00326677
-0.0040142
-0.00459344
-0.00447118
-0.00532424
-0.00518349
-0.00556682
-0.00555327
-0.00554068
-0.00504234
-0.00448595
-0.00310367
-0.00117263
0.00215803
8.21373e-08
-0.000955022
-0.000751135
-0.00150831
-0.0015367
-0.00289995
-0.00326348
-0.00401907
-0.00458915
-0.00447821
-0.00531811
-0.00519621
-0.00556206
-0.00556756
-0.00553413
-0.00506748
-0.00447669
-0.00316697
-0.0011742
0.00175362
-5.49245e-07
-0.000956206
-0.000752266
-0.0015126
-0.0015373
-0.00290636
-0.00326028
-0.00402351
-0.00458355
-0.0044833
-0.00531284
-0.00520938
-0.00555766
-0.00558245
-0.00552856
-0.0050935
-0.00447072
-0.00322949
-0.00120592
0.00135516
-1.81095e-06
-0.0009579
-0.000754188
-0.00151818
-0.00153867
-0.00291355
-0.00325698
-0.0040268
-0.00457706
-0.00448825
-0.0053068
-0.00522381
-0.00555323
-0.00559869
-0.005523
-0.00512165
-0.00446691
-0.00329474
-0.00126919
0.000977809
-3.67657e-06
-0.000960061
-0.000756625
-0.00152502
-0.00154006
-0.00292127
-0.00325298
-0.00402873
-0.00456992
-0.00449301
-0.00530048
-0.00523943
-0.00554857
-0.00561625
-0.00551727
-0.00515214
-0.00446589
-0.00336414
-0.00136257
0.000623578
-6.05715e-06
-0.00096257
-0.000759315
-0.00153283
-0.00154114
-0.0029292
-0.00324813
-0.00402929
-0.00456227
-0.00449753
-0.00529399
-0.00525592
-0.00554384
-0.00563482
-0.0055121
-0.00518432
-0.0044699
-0.00343736
-0.00148434
0.000288202
-8.80894e-06
-0.000965302
-0.000762068
-0.0015413
-0.00154188
-0.00293713
-0.00324258
-0.0040287
-0.0045543
-0.00450188
-0.00528747
-0.00527309
-0.00553931
-0.00565417
-0.00550838
-0.00521718
-0.00448155
-0.00351321
-0.00163296
-3.44651e-05
-1.17782e-05
-0.000968176
-0.000764817
-0.00155023
-0.0015424
-0.00294501
-0.00323662
-0.00402721
-0.00454617
-0.00450608
-0.00528105
-0.00529078
-0.0055353
-0.00567403
-0.00550694
-0.00524981
-0.00450301
-0.003591
-0.00180649
-0.000350499
-1.48527e-05
-0.00097117
-0.000767586
-0.00155947
-0.00154289
-0.00295281
-0.0032305
-0.00402504
-0.00453804
-0.00451013
-0.00527487
-0.00530877
-0.00553213
-0.00569397
-0.00550863
-0.00528157
-0.00453586
-0.0036709
-0.00200209
-0.00066519
-1.79765e-05
-0.000974292
-0.000770425
-0.00156895
-0.00154347
-0.0029605
-0.00322439
-0.00402222
-0.00453001
-0.00451389
-0.00526908
-0.00532683
-0.00553016
-0.00571348
-0.0055144
-0.0053121
-0.00458106
-0.00375432
-0.002216
-0.000982576
-2.11318e-05
-0.000977557
-0.000773379
-0.00157859
-0.00154422
-0.00296803
-0.00321844
-0.00401872
-0.00452222
-0.00451719
-0.00526392
-0.00534463
-0.00552983
-0.00573205
-0.00552513
-0.0053414
-0.0046388
-0.00384386
-0.00244395
-0.0013051
-2.43143e-05
-0.000980973
-0.000776475
-0.00158834
-0.00154521
-0.0029753
-0.00321279
-0.00401443
-0.00451484
-0.00451979
-0.00525966
-0.00536175
-0.00553162
-0.00574934
-0.00554149
-0.00537013
-0.00470843
-0.00394275
-0.00268206
-0.00163364
-2.75195e-05
-0.000984538
-0.000779731
-0.0015981
-0.00154652
-0.00298222
-0.0032076
-0.00400917
-0.00450809
-0.00452143
-0.00525665
-0.00537783
-0.00553597
-0.00576492
-0.00556374
-0.00539986
-0.00478851
-0.00405394
-0.00292758
-0.00196791
-3.07392e-05
-0.000988249
-0.000783166
-0.00160782
-0.00154822
-0.00298867
-0.00320305
-0.00400273
-0.00450223
-0.00452179
-0.00525521
-0.0053926
-0.00554326
-0.00577914
-0.00559169
-0.00543286
-0.00487735
-0.00417933
-0.0031792
-0.00230685
-3.39627e-05
-0.000992098
-0.000786802
-0.00161741
-0.0015504
-0.00299451
-0.00319938
-0.00399485
-0.00449762
-0.00452055
-0.00525554
-0.00540585
-0.00555367
-0.00579256
-0.00562456
-0.00547164
-0.00497399
-0.00432002
-0.00343658
-0.00264898
-3.71788e-05
-0.000996075
-0.000790669
-0.00162677
-0.00155319
-0.00299955
-0.00319686
-0.00398523
-0.00449459
-0.00451744
-0.0052579
-0.00541563
-0.00556699
-0.00580637
-0.00566108
-0.00551827
-0.00507862
-0.00447604
-0.00370004
-0.00299312
-4.0376e-05
-0.00100017
-0.000794806
-0.0016358
-0.0015567
-0.00300359
-0.0031958
-0.00397352
-0.00449344
-0.00451227
-0.00526248
-0.00542572
-0.00558243
-0.00582231
-0.00569999
-0.00557385
-0.00519219
-0.00464646
-0.00397015
-0.00333868
-4.35426e-05
-0.00100436
-0.000799264
-0.00164437
-0.00156111
-0.00300638
-0.00319654
-0.0039594
-0.00449438
-0.00450362
-0.00526919
-0.00543529
-0.00559876
-0.00584224
-0.00574081
-0.0056389
-0.00531617
-0.00482994
-0.00424708
-0.00368547
-4.66708e-05
-0.0010086
-0.000804111
-0.0016523
-0.00156662
-0.00300763
-0.00319943
-0.00394267
-0.00449768
-0.00449421
-0.00527744
-0.00544541
-0.00561445
-0.00586762
-0.00578417
-0.00571335
-0.0054524
-0.00502557
-0.00453025
-0.0040338
-4.97611e-05
-0.00101283
-0.000809436
-0.00165942
-0.00157346
-0.00300705
-0.00320485
-0.00392314
-0.00450562
-0.00448292
-0.0052862
-0.00545767
-0.00562808
-0.00589903
-0.00583136
-0.00579635
-0.00560265
-0.00523364
-0.00481877
-0.00438422
-5.28245e-05
-0.00101697
-0.000815355
-0.00166549
-0.00158189
-0.00300437
-0.00321314
-0.00390059
-0.00451363
-0.00447048
-0.00529416
-0.00547362
-0.00563884
-0.00593657
-0.00588438
-0.00588654
-0.00576773
-0.00545575
-0.00511203
-0.00473713
-5.58853e-05
-0.00102088
-0.000822017
-0.00167024
-0.00159215
-0.00299931
-0.00322455
-0.00387511
-0.00452318
-0.00445806
-0.0052997
-0.00549449
-0.00564679
-0.00597963
-0.00594573
-0.00598281
-0.00594718
-0.00569415
-0.00541041
-0.00509245
-5.89913e-05
-0.00102438
-0.000829604
-0.00167346
-0.00160448
-0.00299167
-0.00323916
-0.00384712
-0.00453356
-0.00444687
-0.00530094
-0.00552093
-0.00565278
-0.00602675
-0.0060181
-0.00608511
-0.00613941
-0.00595085
-0.00571547
-0.00544976
-6.22292e-05
-0.0010272
-0.000838291
-0.00167492
-0.00161915
-0.00298136
-0.00325682
-0.00381717
-0.00454366
-0.0044384
-0.0052965
-0.0055531
-0.00565855
-0.0060758
-0.00610388
-0.00619498
-0.00634168
-0.00622659
-0.00602969
-0.00580847
-6.5723e-05
-0.00102904
-0.000848238
-0.00167444
-0.0016363
-0.00296851
-0.00327716
-0.00378595
-0.00455193
-0.00443403
-0.00528613
-0.00559062
-0.00566635
-0.00612468
-0.00620472
-0.00631558
-0.00655096
-0.00652011
-0.00635581
-0.00616787
-6.96269e-05
-0.00102954
-0.000859607
-0.00167188
-0.00165597
-0.00295347
-0.00329946
-0.00375427
-0.00455707
-0.0044345
-0.00527011
-0.00563239
-0.00567883
-0.00617259
-0.00632111
-0.00645079
-0.00676499
-0.006828
-0.0066959
-0.00652759
-7.41393e-05
-0.00102831
-0.00087251
-0.00166724
-0.00167795
-0.00293688
-0.00332282
-0.00372405
-0.00455821
-0.00444006
-0.00524896
-0.00567695
-0.00569945
-0.00622007
-0.00645229
-0.00660365
-0.00698211
-0.00714497
-0.00705069
-0.00688883
-7.95037e-05
-0.00102493
-0.000886936
-0.00166069
-0.00170179
-0.00291954
-0.00334642
-0.00369564
-0.00455464
-0.00445094
-0.00522364
-0.00572379
-0.00573277
-0.00626976
-0.00659689
-0.006775
-0.00720104
-0.00746496
-0.00741927
-0.0072545
-8.59926e-05
-0.00101905
-0.000902692
-0.00165259
-0.00172678
-0.00290228
-0.0033696
-0.00366959
-0.0045461
-0.00446751
-0.00519608
-0.00577211
-0.00578328
-0.00632448
-0.00675092
-0.00696377
-0.00742168
-0.00778279
-0.00779897
-0.00762725
-9.38558e-05
-0.00101038
-0.000919326
-0.00164357
-0.00175221
-0.0028856
-0.00339187
-0.00364629
-0.00453268
-0.00449019
-0.00516967
-0.00582156
-0.00585198
-0.00638565
-0.00690851
-0.00716801
-0.00764577
-0.00809522
-0.00818576
-0.00800836
-0.000103288
-0.000998801
-0.000936099
-0.00163429
-0.00177764
-0.00286959
-0.00341254
-0.00362636
-0.00451469
-0.00451969
-0.00514905
-0.00587186
-0.00593813
-0.00645342
-0.00706438
-0.00738494
-0.00787595
-0.00840098
-0.00857422
-0.00839753
-0.00011444
-0.000984496
-0.000952006
-0.00162511
-0.00180296
-0.00285422
-0.00343359
-0.0036107
-0.00449278
-0.00455676
-0.00513822
-0.0059217
-0.00603882
-0.0065286
-0.00721531
-0.00761104
-0.00811454
-0.00870029
-0.00895844
-0.00879277
-0.000127362
-0.000967911
-0.000966016
-0.00161604
-0.00182844
-0.00283949
-0.00345408
-0.00360078
-0.00446821
-0.00460198
-0.00513948
-0.00596928
-0.00615043
-0.00661288
-0.00736002
-0.00784243
-0.00836329
-0.00899415
-0.00933343
-0.00919026
-0.000141978
-0.000949713
-0.000977335
-0.00160665
-0.0018546
-0.00282553
-0.00347398
-0.00359873
-0.00444309
-0.00465696
-0.00515309
-0.00601378
-0.0062691
-0.00670789
-0.00749882
-0.00807541
-0.00862319
-0.00928452
-0.00969554
-0.00958455
-0.000158129
-0.000930735
-0.000985474
-0.00159591
-0.00188177
-0.00281301
-0.00349311
-0.00360625
-0.0044199
-0.00471961
-0.00517869
-0.00605699
-0.00639131
-0.00681469
-0.00763364
-0.00830694
-0.00889394
-0.00957382
-0.0100426
-0.00996937
-0.000175564
-0.000911827
-0.000990409
-0.00158253
-0.00190965
-0.00280347
-0.00351149
-0.00362412
-0.00440079
-0.00477849
-0.0052156
-0.00609714
-0.0065139
-0.00693333
-0.00776737
-0.00853482
-0.00917357
-0.00986432
-0.0103743
-0.0103392
-0.000193901
-0.0008937
-0.000992948
-0.00156546
-0.0019373
-0.00279855
-0.00352972
-0.00365253
-0.00438765
-0.00483767
-0.00526262
-0.00613639
-0.00663404
-0.00706289
-0.00790286
-0.00875756
-0.0094587
-0.0101576
-0.0106921
-0.0106904
-0.000212658
-0.00087683
-0.000994743
-0.00154429
-0.00196274
-0.00279969
-0.00354922
-0.00369055
-0.00438178
-0.0048906
-0.00531826
-0.006176
-0.00674965
-0.00720169
-0.00804222
-0.00897382
-0.00974514
-0.0104545
-0.010999
-0.0110217
-0.000231346
-0.000861502
-0.000997502
-0.00151883
-0.00198538
-0.00280778
-0.00357162
-0.00373694
-0.00438433
-0.0049421
-0.00538112
-0.00621741
-0.00685968
-0.00734759
-0.00818652
-0.00918212
-0.0100283
-0.0107549
-0.0112991
-0.0113345
-0.000249623
-0.000847876
-0.00100241
-0.00149002
-0.00200085
-0.00282283
-0.00359793
-0.00379079
-0.00439706
-0.00499291
-0.00545019
-0.00626208
-0.00696415
-0.00749843
-0.00833608
-0.00938127
-0.0103034
-0.0110568
-0.0115957
-0.0116315
-0.000267327
-0.000835695
-0.00101034
-0.00146072
-0.00200991
-0.002843
-0.00362901
-0.00385071
-0.00441746
-0.00504346
-0.0055247
-0.00631155
-0.0070638
-0.00765222
-0.00849118
-0.00957129
-0.0105659
-0.0113564
-0.0118904
-0.011916
-0.000284474
-0.000824319
-0.00102193
-0.00143453
-0.00201225
-0.00286616
-0.00366533
-0.00391494
-0.00444536
-0.00509422
-0.00560385
-0.00636731
-0.00715937
-0.007807
-0.00865239
-0.00975402
-0.0108127
-0.0116482
-0.0121821
-0.0121906
-0.000301201
-0.000813116
-0.00103743
-0.00141458
-0.00200859
-0.00289011
-0.00370644
-0.00398274
-0.00447964
-0.00514519
-0.00568641
-0.00643008
-0.00725163
-0.00796048
-0.00881974
-0.00993238
-0.0110429
-0.0119267
-0.0124677
-0.0124568
-0.000317604
-0.000801729
-0.00105669
-0.00140332
-0.00200196
-0.00291298
-0.00375107
-0.00405421
-0.00451964
-0.00519552
-0.00577094
-0.00649949
-0.00734118
-0.00811034
-0.00899176
-0.0101091
-0.0112573
-0.0121874
-0.0127428
-0.0127145
-0.000333964
-0.00078968
-0.0010792
-0.00140345
-0.00199612
-0.00293357
-0.00379745
-0.00412894
-0.00456553
-0.00524453
-0.00585577
-0.00657492
-0.00742838
-0.00825434
-0.00916571
-0.0102855
-0.0114577
-0.012428
-0.0130029
-0.0129622
-0.000350908
-0.000776675
-0.00110422
-0.00141771
-0.0019945
-0.00295063
-0.00384355
-0.0042059
-0.00461767
-0.00529282
-0.00593908
-0.00665526
-0.00751356
-0.00839015
-0.00933789
-0.0104618
-0.0116466
-0.012648
-0.0132442
-0.0131971
-0.000368792
-0.000763167
-0.0011292
-0.00144731
-0.002001
-0.00296388
-0.00388758
-0.00428398
-0.00467533
-0.00534164
-0.00601973
-0.006739
-0.00759693
-0.00851546
-0.00950411
-0.0106367
-0.0118265
-0.0128485
-0.0134642
-0.0134155
-0.000387612
-0.000750517
-0.0011535
-0.00149126
-0.00202
-0.00297536
-0.00392727
-0.00436132
-0.00473673
-0.00539126
-0.00609783
-0.00682477
-0.00767829
-0.00862832
-0.00965973
-0.0108076
-0.011999
-0.0130318
-0.0136616
-0.0136135
-0.000407604
-0.00074035
-0.00117733
-0.00154621
-0.00205403
-0.0029897
-0.0039624
-0.00443529
-0.00479968
-0.00544086
-0.0061738
-0.00691179
-0.00775747
-0.00872758
-0.00979993
-0.0109701
-0.0121643
-0.0131999
-0.0138367
-0.0137884
-0.000429335
-0.000733949
-0.00120112
-0.0016094
-0.00210425
-0.003011
-0.00399332
-0.00450419
-0.0048621
-0.00548854
-0.0062465
-0.00699966
-0.00783517
-0.00881332
-0.0099204
-0.0111187
-0.0123201
-0.0133545
-0.0139908
-0.0139388
-0.000453529
-0.000732548
-0.0012256
-0.00167905
-0.00216996
-0.00304169
-0.00402273
-0.00456826
-0.00492269
-0.00553213
-0.0063128
-0.00708686
-0.00791249
-0.00888679
-0.0100179
-0.0112468
-0.0124623
-0.0134958
-0.0141261
-0.0140654
-0.000481001
-0.000737517
-0.00125274
-0.00175368
-0.00224854
-0.00308256
-0.0040539
-0.00462878
-0.00498148
-0.0055699
-0.00636866
-0.00716986
-0.0079897
-0.00895004
-0.0100912
-0.0113476
-0.0125837
-0.0136215
-0.0142441
-0.0141702
-0.000512721
-0.000750291
-0.00128431
-0.00183236
-0.00233693
-0.0031337
-0.0040889
-0.00468777
-0.00503945
-0.00560143
-0.00641049
-0.00724334
-0.008065
-0.00900505
-0.0101406
-0.0114155
-0.0126756
-0.0137256
-0.0143443
-0.0142557
-0.000549863
-0.000772133
-0.00132205
-0.00191504
-0.00243302
-0.00319433
-0.00412855
-0.00474715
-0.00509788
-0.005628
-0.00643603
-0.00730094
-0.00813356
-0.00905214
-0.0101678
-0.0114471
-0.012729
-0.0137986
-0.014422
-0.0143218
-0.00059411
-0.000804154
-0.00136722
-0.00200207
-0.00253595
-0.00326292
-0.0041725
-0.0048082
-0.00515859
-0.00565176
-0.00644503
-0.00733674
-0.00818818
-0.00908894
-0.0101741
-0.0114419
-0.0127371
-0.0138288
-0.0144665
-0.0143637
-0.000647471
-0.000847502
-0.0014204
-0.00209391
-0.00264608
-0.00333888
-0.00421997
-0.00487093
-0.00522271
-0.00567454
-0.00643838
-0.00734621
-0.00822073
-0.00911036
-0.0101595
-0.0114005
-0.0126965
-0.0138082
-0.0144665
-0.0143721
-0.000711692
-0.000903707
-0.00148227
-0.0021908
-0.00276407
-0.00342318
-0.00427053
-0.00493412
-0.00529022
-0.00569808
-0.00641749
-0.00732628
-0.00822305
-0.00910868
-0.010121
-0.0113232
-0.0126058
-0.0137313
-0.0144134
-0.0143354
-0.000788618
-0.000974483
-0.00155413
-0.00229301
-0.00289014
-0.00351737
-0.00432473
-0.00499594
-0.00536007
-0.0057241
-0.00638479
-0.00727562
-0.00818758
-0.00907415
-0.0100521
-0.0112078
-0.0124633
-0.0135932
-0.0142992
-0.0142461
-0.000880048
-0.00106169
-0.00163768
-0.00240066
-0.00302459
-0.0036234
-0.00438438
-0.00505527
-0.00542995
-0.00575304
-0.00634299
-0.00719447
-0.00810795
-0.00899595
-0.00994325
-0.0110483
-0.0122652
-0.013388
-0.0141152
-0.014093
-0.000987413
-0.0011668
-0.00173556
-0.00251437
-0.00316687
-0.00374343
-0.00445252
-0.00511259
-0.00549766
-0.00578411
-0.00629449
-0.00708414
-0.00797935
-0.00886245
-0.00978184
-0.0108342
-0.0120024
-0.0131065
-0.0138492
-0.0138616
-0.00111294
-0.00129085
-0.00184994
-0.00263644
-0.00331637
-0.00387838
-0.00453305
-0.00517035
-0.00556242
-0.00581665
-0.00624146
-0.00694699
-0.00779868
-0.00866247
-0.00955182
-0.010549
-0.0116594
-0.0127327
-0.0134832
-0.0135346
-0.0012589
-0.00143618
-0.00198262
-0.00276892
-0.00347398
-0.00402873
-0.00463002
-0.00523283
-0.00562505
-0.00585058
-0.00618616
-0.00678601
-0.00756379
-0.00838557
-0.00923384
-0.0101698
-0.0112124
-0.0122419
-0.0129907
-0.0130739
-0.00142664
-0.0016042
-0.00213736
-0.00291443
-0.00364042
-0.0041959
-0.00474772
-0.00530647
-0.00568919
-0.00588717
-0.00613265
-0.00660588
-0.00727479
-0.00802075
-0.00880391
-0.00966515
-0.0106268
-0.0115934
-0.0123253
-0.0124403
-0.00161753
-0.00179559
-0.0023164
-0.00307716
-0.00381717
-0.00437947
-0.00489027
-0.00539992
-0.00576269
-0.00593178
-0.00608814
-0.00641804
-0.00693795
-0.00755712
-0.00823002
-0.00898942
-0.00985111
-0.0107411
-0.0114343
-0.0115797
-0.00183568
-0.00201238
-0.00252124
-0.00326124
-0.00400679
-0.0045792
-0.00506016
-0.00552023
-0.00585659
-0.00599466
-0.00606295
-0.00624204
-0.00657715
-0.00700126
-0.00748842
-0.00807281
-0.00878403
-0.00955715
-0.0102094
-0.0104057
-0.00208283
-0.00225781
-0.00275568
-0.00347064
-0.0042125
-0.00479706
-0.00525872
-0.00567373
-0.00598058
-0.00608986
-0.00607235
-0.0060954
-0.00623521
-0.00641111
-0.00657778
-0.00683239
-0.00725097
-0.0078174
-0.00840289
-0.00871427
-0.00235245
-0.00253564
-0.00302274
-0.0037089
-0.00443931
-0.00503552
-0.00548787
-0.00586758
-0.00614344
-0.00622994
-0.00614199
-0.00599008
-0.00591081
-0.00587621
-0.00571334
-0.00533532
-0.00488207
-0.00460776
-0.0046682
-0.0049589
-0.00264658
-0.00284923
-0.00332389
-0.00397858
-0.00469339
-0.0052978
-0.00575038
-0.00610759
-0.00635343
-0.00642509
-0.00629505
-0.00599477
-0.00558956
-0.00525647
-0.00514405
-0.00497406
-0.00414475
-0.00236966
-0.000298554
0.00125476
-0.00297692
-0.00319414
-0.00365572
-0.00428161
-0.00497815
-0.00558641
-0.00604802
-0.00639305
-0.00661282
-0.00664615
-0.00648859
-0.0061803
-0.00546572
-0.00402551
-0.00225591
-0.000534974
0.0010324
0.00248327
0.00368529
0.00426999
-0.00335226
-0.00356693
-0.00401438
-0.00462044
-0.00529333
-0.00590155
-0.00636912
-0.006701
-0.0068942
-0.00681915
-0.00615402
-0.00475065
-0.00302074
-0.00131522
0.000201068
0.00155841
0.00280614
0.00392149
0.00474009
0.00492498
-0.0037689
-0.00396776
-0.00440371
-0.00498926
-0.00563393
-0.00623067
-0.00667568
-0.00690565
-0.00680265
-0.00605761
-0.00476943
-0.00320819
-0.00165839
-0.000230596
0.00114454
0.002495
0.00378407
0.00490451
0.00565144
0.00570133
-0.00420993
-0.00440047
-0.00482473
-0.00537421
-0.00597682
-0.00651181
-0.00682053
-0.00672069
-0.00608463
-0.00504253
-0.00372956
-0.00231478
-0.000874075
0.000558889
0.00197423
0.00336242
0.00467494
0.00579084
0.00649878
0.00647442
-0.0046705
-0.00487026
-0.00526105
-0.00575065
-0.00625279
-0.00662033
-0.00663363
-0.00620027
-0.00538654
-0.00429066
-0.00303442
-0.00166368
-0.000222051
0.001246
0.00270481
0.00412353
0.00544326
0.00653805
0.00719342
0.00708281
-0.00514683
-0.00534965
-0.00568844
-0.00607935
-0.00640463
-0.00650586
-0.00628317
-0.00571403
-0.00484387
-0.0037538
-0.00249729
-0.00111704
0.000342781
0.00183482
0.0033181
0.00474812
0.00605362
0.00710661
0.0076959
0.00750216
-0.00561524
-0.00580616
-0.00607154
-0.00631939
-0.00643675
-0.00633075
-0.00596141
-0.00531161
-0.00440963
-0.00330605
-0.00203816
-0.000647827
0.00082024
0.00232145
0.0038091
0.00523217
0.00651384
0.00752597
0.00806171
0.00780746
-0.00605278
-0.00621558
-0.00637988
-0.00647236
-0.00642701
-0.00618531
-0.00571047
-0.00499545
-0.00405769
-0.00292861
-0.00164504
-0.00024714
0.00122259
0.00272031
0.00420079
0.00561025
0.00686962
0.00785056
0.00834814
0.00805167
-0.00643871
-0.00656049
-0.00660476
-0.0065595
-0.00639619
-0.00606813
-0.00553332
-0.00477055
-0.00379296
-0.00263289
-0.00132925
7.70591e-05
0.00154481
0.00303591
0.00450771
0.00590454
0.00714634
0.00810493
0.00857613
0.00825068
-0.00674441
-0.00683289
-0.00678361
-0.0066229
-0.00635732
-0.00596045
-0.00539037
-0.00460958
-0.00361528
-0.00243454
-0.00110846
0.000318544
0.00180266
0.00330011
0.00476598
0.00615385
0.00738396
0.00832679
0.00877869
0.00843217
-0.00693939
-0.0070192
-0.00693856
-0.00672983
-0.00640513
-0.00594511
-0.00531556
-0.00450171
-0.00349877
-0.00231963
-0.000993321
0.000439932
0.00193709
0.00345444
0.00494634
0.00635038
0.00758448
0.00852182
0.00896279
0.00860337
0.00649075
0.00180163
-0.00536484
-0.0104716
-0.011484
-0.0101551
-0.00860796
-0.00755211
-0.00694323
-0.00660826
-0.00643273
-0.00635274
-0.00633007
-0.00634397
-0.00638222
-0.00643511
-0.0064967
-0.00656436
-0.00663494
-0.00670472
-0.00677278
-0.0068409
-0.00691057
-0.00698252
-0.00705784
-0.0071373
-0.00721991
-0.00730367
-0.00738802
-0.00747424
-0.00756365
-0.00765581
-0.00774888
-0.00784124
-0.00793227
-0.00802197
-0.00811024
-0.00819659
-0.00828022
-0.00836034
-0.00843675
-0.00850983
-0.00858015
-0.0086482
-0.00871472
-0.00878061
-0.00884642
-0.00891221
-0.00897761
-0.00904212
-0.00910526
-0.00916651
-0.00922557
-0.00928238
-0.00933721
-0.00939066
-0.00944359
-0.00949665
-0.00955021
-0.00960404
-0.00965762
-0.00971056
-0.00976276
-0.00981422
-0.00986517
-0.00991583
-0.00996642
-0.0100169
-0.0100672
-0.0101174
-0.0101675
-0.0102175
-0.0102671
-0.0103163
-0.0103653
-0.0104145
-0.010464
-0.0105134
-0.0105627
-0.0106123
-0.0106622
-0.0107126
-0.010763
-0.0108134
-0.010864
-0.0109151
-0.0109666
-0.011018
-0.0110688
-0.0111193
-0.01117
-0.0112215
-0.0112736
-0.0113255
-0.0113764
-0.0114264
-0.0114762
-0.0115266
-0.0115774
-0.0116278
-0.0116771
-0.0117255
-0.0117732
-0.0118208
-0.0118679
-0.0119148
-0.0119608
-0.0120062
-0.0120501
-0.012093
-0.0121351
-0.0121773
-0.0122189
-0.0122594
-0.012298
-0.0123359
-0.0123736
-0.0124114
-0.0124484
-0.0124838
-0.0125182
-0.012552
-0.012586
-0.0126192
-0.0126515
-0.0126826
-0.0127135
-0.012744
-0.0127741
-0.0128033
-0.0128322
-0.0128604
-0.0128882
-0.012916
-0.0129433
-0.0129699
-0.0129962
-0.0130227
-0.0130488
-0.0130744
-0.0130998
-0.0131252
-0.0131505
-0.0131754
-0.0132002
-0.0132248
-0.0132493
-0.0132737
-0.0132978
-0.0133219
-0.0133457
-0.0133694
-0.0133928
-0.0134164
-0.0134395
-0.0134627
-0.0134854
-0.0135085
-0.0135309
-0.0135536
-0.0135757
-0.0135982
-0.0136202
-0.0136423
-0.0136643
-0.0136862
-0.0137082
-0.01373
-0.0137521
-0.0137738
-0.013796
-0.0138176
-0.0138399
-0.0138617
-0.0138838
-0.013906
-0.0139279
-0.0139507
-0.0139725
-0.0139954
-0.0140178
-0.0140401
-0.0140637
-0.0140856
-0.0141096
-0.0141323
-0.0141557
-0.01418
-0.0142026
-0.0142274
-0.0142505
-0.0142747
-0.0142971
-0.0143224
-0.0143425
-0.0143652
-0.0143888
-0.014401
-0.0144226
-0.0144448
0.00576965
0.00161903
-0.00528883
-0.0103345
-0.0114018
-0.010116
-0.00858345
-0.00753492
-0.00693097
-0.00659905
-0.00642536
-0.00634655
-0.0063247
-0.0063392
-0.00637791
-0.00643117
-0.00649306
-0.00656099
-0.00663181
-0.00670182
-0.00677009
-0.0068384
-0.00690823
-0.00698034
-0.00705579
-0.00713538
-0.00721811
-0.00730198
-0.00738643
-0.00747275
-0.00756223
-0.00765448
-0.00774762
-0.00784005
-0.00793114
-0.0080209
-0.00810922
-0.00819562
-0.00827929
-0.00835945
-0.0084359
-0.00850903
-0.00857938
-0.00864747
-0.00871402
-0.00877995
-0.00884579
-0.0089116
-0.00897702
-0.00904156
-0.00910471
-0.00916599
-0.00922506
-0.00928189
-0.00933674
-0.00939021
-0.00944315
-0.00949623
-0.0095498
-0.00960364
-0.00965723
-0.00971018
-0.00976239
-0.00981386
-0.00986482
-0.00991549
-0.00996609
-0.0100166
-0.0100669
-0.0101171
-0.0101672
-0.0102172
-0.0102669
-0.010316
-0.010365
-0.0104143
-0.0104638
-0.0105132
-0.0105625
-0.010612
-0.010662
-0.0107124
-0.0107628
-0.0108132
-0.0108638
-0.0109149
-0.0109664
-0.0110178
-0.0110687
-0.0111191
-0.0111699
-0.0112213
-0.0112734
-0.0113253
-0.0113762
-0.0114262
-0.0114761
-0.0115265
-0.0115772
-0.0116276
-0.011677
-0.0117254
-0.0117731
-0.0118207
-0.0118678
-0.0119147
-0.0119607
-0.0120061
-0.01205
-0.0120929
-0.012135
-0.0121772
-0.0122188
-0.0122593
-0.012298
-0.0123358
-0.0123736
-0.0124113
-0.0124483
-0.0124837
-0.0125181
-0.0125519
-0.0125859
-0.0126191
-0.0126515
-0.0126825
-0.0127135
-0.012744
-0.012774
-0.0128033
-0.0128322
-0.0128603
-0.0128881
-0.0129159
-0.0129433
-0.0129699
-0.0129962
-0.0130226
-0.0130488
-0.0130744
-0.0130998
-0.0131252
-0.0131505
-0.0131754
-0.0132001
-0.0132248
-0.0132493
-0.0132736
-0.0132978
-0.0133219
-0.0133457
-0.0133694
-0.0133928
-0.0134164
-0.0134395
-0.0134627
-0.0134854
-0.0135085
-0.0135309
-0.0135536
-0.0135757
-0.0135982
-0.0136202
-0.0136423
-0.0136643
-0.0136862
-0.0137082
-0.01373
-0.0137521
-0.0137738
-0.013796
-0.0138176
-0.0138399
-0.0138617
-0.0138838
-0.013906
-0.0139279
-0.0139507
-0.0139725
-0.0139954
-0.0140178
-0.0140401
-0.0140637
-0.0140856
-0.0141096
-0.0141323
-0.0141557
-0.01418
-0.0142026
-0.0142274
-0.0142505
-0.0142747
-0.0142971
-0.0143224
-0.0143425
-0.0143652
-0.0143888
-0.014401
-0.0144226
-0.0144448
0.00500817
0.00143222
-0.0051213
-0.0100761
-0.0112529
-0.0100573
-0.00855174
-0.00751042
-0.00691178
-0.00658452
-0.00641433
-0.00633796
-0.0063178
-0.00633349
-0.00637304
-0.00642689
-0.00648921
-0.00655747
-0.00662857
-0.00669881
-0.00676728
-0.00683579
-0.00690582
-0.00697809
-0.00705368
-0.00713341
-0.00721627
-0.00730025
-0.00738481
-0.00747122
-0.00756081
-0.00765313
-0.00774635
-0.00783886
-0.00793002
-0.00801984
-0.00810822
-0.00819466
-0.00827838
-0.00835858
-0.00843507
-0.00850823
-0.00857861
-0.00864674
-0.00871333
-0.00877929
-0.00884516
-0.008911
-0.00897645
-0.00904101
-0.00910419
-0.00916548
-0.00922456
-0.00928142
-0.00933627
-0.00938976
-0.00944272
-0.00949581
-0.0095494
-0.00960325
-0.00965686
-0.00970982
-0.00976204
-0.00981352
-0.00986449
-0.00991517
-0.00996578
-0.0100163
-0.0100666
-0.0101168
-0.0101669
-0.0102169
-0.0102666
-0.0103158
-0.0103648
-0.010414
-0.0104635
-0.0105129
-0.0105623
-0.0106118
-0.0106618
-0.0107122
-0.0107626
-0.010813
-0.0108636
-0.0109147
-0.0109662
-0.0110176
-0.0110685
-0.011119
-0.0111697
-0.0112212
-0.0112733
-0.0113251
-0.0113761
-0.0114261
-0.011476
-0.0115263
-0.0115771
-0.0116275
-0.0116769
-0.0117252
-0.011773
-0.0118206
-0.0118677
-0.0119146
-0.0119606
-0.012006
-0.0120499
-0.0120928
-0.0121349
-0.0121772
-0.0122188
-0.0122592
-0.0122979
-0.0123357
-0.0123735
-0.0124112
-0.0124483
-0.0124836
-0.0125181
-0.0125519
-0.0125859
-0.0126191
-0.0126514
-0.0126825
-0.0127135
-0.012744
-0.012774
-0.0128033
-0.0128321
-0.0128603
-0.0128881
-0.0129159
-0.0129432
-0.0129699
-0.0129962
-0.0130226
-0.0130488
-0.0130744
-0.0130998
-0.0131252
-0.0131505
-0.0131753
-0.0132001
-0.0132248
-0.0132493
-0.0132736
-0.0132978
-0.0133219
-0.0133457
-0.0133694
-0.0133928
-0.0134164
-0.0134395
-0.0134627
-0.0134854
-0.0135085
-0.0135309
-0.0135536
-0.0135757
-0.0135981
-0.0136202
-0.0136423
-0.0136643
-0.0136862
-0.0137082
-0.01373
-0.0137521
-0.0137738
-0.013796
-0.0138176
-0.0138399
-0.0138617
-0.0138838
-0.013906
-0.0139279
-0.0139507
-0.0139725
-0.0139954
-0.0140178
-0.0140401
-0.0140637
-0.0140856
-0.0141096
-0.0141323
-0.0141557
-0.01418
-0.0142026
-0.0142274
-0.0142505
-0.0142747
-0.0142971
-0.0143224
-0.0143425
-0.0143652
-0.0143888
-0.014401
-0.0144226
-0.0144448
0.00428637
0.00126607
-0.00488611
-0.00973422
-0.0110454
-0.00997375
-0.0085065
-0.00747326
-0.00688131
-0.0065614
-0.00639723
-0.00632515
-0.00630793
-0.00632568
-0.00636669
-0.00642157
-0.00648461
-0.00655337
-0.00662481
-0.00669532
-0.00676403
-0.00683279
-0.00690304
-0.00697553
-0.0070513
-0.00713118
-0.00721417
-0.00729828
-0.00738298
-0.00746952
-0.00755922
-0.00765165
-0.00774496
-0.00783755
-0.00792879
-0.00801869
-0.00810714
-0.00819365
-0.00827741
-0.00835765
-0.00843418
-0.00850737
-0.00857779
-0.00864595
-0.00871257
-0.00877858
-0.00884449
-0.00891037
-0.00897586
-0.00904045
-0.00910365
-0.00916496
-0.00922406
-0.00928092
-0.00933579
-0.0093893
-0.00944227
-0.00949539
-0.00954899
-0.00960286
-0.00965648
-0.00970945
-0.00976168
-0.00981317
-0.00986415
-0.00991484
-0.00996546
-0.010016
-0.0100663
-0.0101165
-0.0101666
-0.0102167
-0.0102663
-0.0103155
-0.0103645
-0.0104138
-0.0104633
-0.0105127
-0.010562
-0.0106116
-0.0106616
-0.010712
-0.0107624
-0.0108128
-0.0108634
-0.0109145
-0.010966
-0.0110174
-0.0110683
-0.0111188
-0.0111695
-0.011221
-0.0112731
-0.011325
-0.0113759
-0.0114259
-0.0114758
-0.0115262
-0.011577
-0.0116274
-0.0116767
-0.0117251
-0.0117729
-0.0118205
-0.0118676
-0.0119145
-0.0119605
-0.0120059
-0.0120498
-0.0120927
-0.0121348
-0.0121771
-0.0122187
-0.0122592
-0.0122978
-0.0123357
-0.0123734
-0.0124112
-0.0124482
-0.0124836
-0.012518
-0.0125518
-0.0125859
-0.012619
-0.0126514
-0.0126824
-0.0127134
-0.0127439
-0.012774
-0.0128032
-0.0128321
-0.0128603
-0.0128881
-0.0129159
-0.0129432
-0.0129698
-0.0129961
-0.0130226
-0.0130488
-0.0130743
-0.0130998
-0.0131252
-0.0131504
-0.0131753
-0.0132001
-0.0132248
-0.0132493
-0.0132736
-0.0132978
-0.0133219
-0.0133456
-0.0133694
-0.0133928
-0.0134164
-0.0134394
-0.0134627
-0.0134854
-0.0135085
-0.0135309
-0.0135536
-0.0135757
-0.0135981
-0.0136202
-0.0136423
-0.0136643
-0.0136862
-0.0137082
-0.01373
-0.0137521
-0.0137738
-0.013796
-0.0138176
-0.0138399
-0.0138617
-0.0138838
-0.013906
-0.0139279
-0.0139507
-0.0139725
-0.0139954
-0.0140178
-0.0140401
-0.0140637
-0.0140856
-0.0141096
-0.0141323
-0.0141557
-0.01418
-0.0142026
-0.0142274
-0.0142505
-0.0142747
-0.0142971
-0.0143224
-0.0143425
-0.0143652
-0.0143888
-0.014401
-0.0144226
-0.0144448
0.00359614
0.00109135
-0.00463184
-0.00936173
-0.0108116
-0.00987818
-0.0084541
-0.00742657
-0.00684028
-0.00652904
-0.00637284
-0.0063067
-0.00629373
-0.00631456
-0.00635783
-0.00641435
-0.00647855
-0.00654808
-0.00662003
-0.00669087
-0.00675989
-0.00682894
-0.00689951
-0.00697229
-0.00704831
-0.00712836
-0.00721149
-0.00729576
-0.00738063
-0.00746736
-0.00755723
-0.00764979
-0.00774321
-0.0078359
-0.00792726
-0.00801729
-0.00810584
-0.00819242
-0.00827625
-0.00835654
-0.00843311
-0.00850632
-0.00857677
-0.00864497
-0.00871164
-0.0087777
-0.00884367
-0.00890962
-0.00897517
-0.0090398
-0.00910304
-0.00916437
-0.00922348
-0.00928035
-0.00933524
-0.00938876
-0.00944176
-0.0094949
-0.00954853
-0.00960243
-0.00965606
-0.00970904
-0.00976128
-0.00981278
-0.00986377
-0.00991447
-0.0099651
-0.0100156
-0.010066
-0.0101161
-0.0101663
-0.0102163
-0.010266
-0.0103152
-0.0103643
-0.0104135
-0.010463
-0.0105124
-0.0105618
-0.0106113
-0.0106613
-0.0107117
-0.0107622
-0.0108126
-0.0108632
-0.0109143
-0.0109658
-0.0110172
-0.0110681
-0.0111186
-0.0111693
-0.0112208
-0.0112729
-0.0113248
-0.0113758
-0.0114258
-0.0114757
-0.011526
-0.0115768
-0.0116272
-0.0116766
-0.011725
-0.0117728
-0.0118203
-0.0118675
-0.0119144
-0.0119604