/*--------------------------------*- C++ -*----------------------------------*\
| =========                 |                                                 |
| \\      /  F ield         | OpenFOAM: The Open Source CFD Toolbox           |
|  \\    /   O peration     | Version:  v2012                                 |
|   \\  /    A nd           | Website:  www.openfoam.com                      |
|    \\/     M anipulation  |                                                 |
\*---------------------------------------------------------------------------*/
FoamFile
{
    version     2.0;
    format      ascii;
    class       surfaceScalarField;
    location    "1.15";
    object      phi;
}
// * * * * * * * * * * * * * * * * * * * * * * * * * * * * * * * * * * * * * //

dimensions      [0 3 -1 0 0 0 0];
oriented        oriented;


internalField   nonuniform List<scalar> 
34900
(
1.17113e-06
1.03433e-07
1.16847e-06
-1.97804e-07
1.17223e-06
2.61242e-07
1.159e-06
-3.88893e-07
1.16938e-06
4.91258e-07
1.14822e-06
-4.05938e-07
1.16177e-06
3.0081e-07
1.14365e-06
-1.41814e-07
1.15379e-06
3.40606e-08
1.14348e-06
3.51563e-09
1.15257e-06
-3.07047e-10
1.14419e-06
2.22687e-09
1.15339e-06
5.05446e-08
1.14375e-06
1.39993e-08
1.15285e-06
6.11005e-08
1.1413e-06
1.98951e-08
1.14961e-06
7.14431e-08
1.13649e-06
2.16623e-08
1.13956e-06
8.76109e-08
2.81812e-08
1.10314e-06
1.22504e-06
1.02659e-07
1.22376e-06
-1.96533e-07
1.22508e-06
2.59921e-07
1.21295e-06
-3.76757e-07
1.21966e-06
4.84548e-07
1.20103e-06
-3.87304e-07
1.21019e-06
2.91646e-07
1.19775e-06
-1.29379e-07
1.20327e-06
2.85453e-08
1.20008e-06
6.70241e-09
1.20379e-06
-4.01011e-09
1.2032e-06
2.8127e-09
1.20422e-06
4.95274e-08
1.20564e-06
1.2571e-08
1.20206e-06
6.46847e-08
1.20693e-06
1.50218e-08
1.19597e-06
8.24084e-08
1.20588e-06
1.17517e-08
1.1815e-06
1.11991e-07
2.30972e-08
1.18658e-06
1.28061e-06
1.04832e-07
1.28158e-06
-1.97505e-07
1.28017e-06
2.61338e-07
1.26988e-06
-3.6647e-07
1.27315e-06
4.81272e-07
1.25846e-06
-3.72609e-07
1.26189e-06
2.88216e-07
1.2574e-06
-1.24888e-07
1.25615e-06
2.97924e-08
1.26103e-06
1.82298e-09
1.25815e-06
-1.13346e-09
1.26501e-06
-4.04774e-09
1.25951e-06
5.50294e-08
1.26767e-06
4.41648e-09
1.25929e-06
7.30621e-08
1.26744e-06
6.87401e-09
1.25734e-06
9.25014e-08
1.26247e-06
6.6292e-09
1.25116e-06
1.233e-07
3.56932e-08
1.23856e-06
1.33874e-06
1.10191e-07
1.34227e-06
-2.01033e-07
1.33862e-06
2.6499e-07
1.33093e-06
-3.5878e-07
1.33191e-06
4.80291e-07
1.32211e-06
-3.62806e-07
1.32062e-06
2.89709e-07
1.32303e-06
-1.27303e-07
1.3168e-06
3.60302e-08
1.32546e-06
-6.84029e-09
1.32017e-06
4.15943e-09
1.328e-06
-1.18854e-08
1.32297e-06
6.00597e-08
1.32974e-06
-2.35215e-09
1.32492e-06
7.78836e-08
1.3289e-06
2.89652e-09
1.32516e-06
9.6234e-08
1.32413e-06
7.66318e-09
1.32022e-06
1.27214e-07
5.21436e-08
1.30377e-06
1.40065e-06
1.17895e-07
1.40582e-06
-2.06202e-07
1.40137e-06
2.69442e-07
1.39603e-06
-3.53442e-07
1.39669e-06
4.79625e-07
1.39082e-06
-3.56936e-07
1.38752e-06
2.93015e-07
1.39292e-06
-1.32706e-07
1.38589e-06
4.30583e-08
1.39367e-06
-1.46163e-08
1.38971e-06
8.11706e-09
1.39496e-06
-1.71319e-08
1.39283e-06
6.21904e-08
1.39663e-06
-6.15757e-09
1.39508e-06
7.94355e-08
1.39635e-06
1.6292e-09
1.39527e-06
9.73058e-08
1.39206e-06
1.08738e-08
1.39013e-06
1.29144e-07
6.8552e-08
1.37373e-06
1.46732e-06
1.26253e-07
1.4725e-06
-2.11387e-07
1.46885e-06
2.73098e-07
1.46496e-06
-3.49551e-07
1.46692e-06
4.77659e-07
1.46321e-06
-3.53223e-07
1.46094e-06
2.9529e-07
1.46589e-06
-1.37659e-07
1.46076e-06
4.81865e-08
1.46591e-06
-1.9761e-08
1.46383e-06
1.01949e-08
1.46665e-06
-1.99562e-08
1.46628e-06
6.25589e-08
1.46835e-06
-8.2249e-09
1.4681e-06
7.96842e-08
1.4682e-06
1.5315e-09
1.46811e-06
9.73995e-08
1.46355e-06
1.5426e-08
1.46304e-06
1.29655e-07
8.49884e-08
1.44661e-06
1.539e-06
1.33467e-07
1.54281e-06
-2.15198e-07
1.5409e-06
2.75011e-07
1.53756e-06
-3.46207e-07
1.54136e-06
4.73856e-07
1.53837e-06
-3.50235e-07
1.53829e-06
2.95371e-07
1.54133e-06
-1.407e-07
1.53847e-06
5.10439e-08
1.54137e-06
-2.26589e-08
1.54027e-06
1.12999e-08
1.54172e-06
-2.14103e-08
1.54195e-06
6.23326e-08
1.54307e-06
-9.3467e-09
1.5434e-06
7.93568e-08
1.5426e-06
2.3222e-09
1.54335e-06
9.66542e-08
1.53741e-06
2.13706e-08
1.53821e-06
1.2885e-07
1.01123e-07
1.52207e-06
1.61516e-06
1.38437e-07
1.61706e-06
-2.17097e-07
1.61693e-06
2.75142e-07
1.61362e-06
-3.42897e-07
1.61895e-06
4.68519e-07
1.61592e-06
-3.47197e-07
1.61789e-06
2.93396e-07
1.619e-06
-1.41809e-07
1.61779e-06
5.22591e-08
1.61925e-06
-2.41205e-08
1.61847e-06
1.20759e-08
1.61913e-06
-2.20665e-08
1.61957e-06
6.18904e-08
1.61993e-06
-9.7116e-09
1.62076e-06
7.85268e-08
1.61903e-06
4.05916e-09
1.62065e-06
9.50366e-08
1.61339e-06
2.86302e-08
1.61517e-06
1.27069e-07
1.16399e-07
1.59989e-06
1.69497e-06
1.41046e-07
1.69523e-06
-2.1736e-07
1.69638e-06
2.73992e-07
1.69295e-06
-3.39465e-07
1.69931e-06
4.62155e-07
1.69588e-06
-3.43768e-07
1.6994e-06
2.89874e-07
1.69903e-06
-1.41432e-07
1.69889e-06
5.23978e-08
1.69943e-06
-2.46674e-08
1.69887e-06
1.26424e-08
1.69889e-06
-2.20904e-08
1.69957e-06
6.12079e-08
1.69918e-06
-9.31887e-09
1.70058e-06
7.71299e-08
1.69783e-06
6.80229e-09
1.70028e-06
9.25919e-08
1.69191e-06
3.69995e-08
1.69423e-06
1.24747e-07
1.30318e-07
1.68031e-06
1.77792e-06
1.41848e-07
1.77717e-06
-2.16613e-07
1.77906e-06
2.72107e-07
1.77549e-06
-3.35894e-07
1.78256e-06
4.55086e-07
1.77857e-06
-3.39776e-07
1.78325e-06
2.8519e-07
1.78177e-06
-1.39951e-07
1.78246e-06
5.17039e-08
1.78233e-06
-2.45326e-08
1.78211e-06
1.28566e-08
1.78153e-06
-2.15114e-08
1.78261e-06
6.01319e-08
1.78144e-06
-8.14459e-09
1.78348e-06
7.5085e-08
1.77973e-06
1.05576e-08
1.78286e-06
8.94552e-08
1.77369e-06
4.6171e-08
1.77606e-06
1.2238e-07
1.42473e-07
1.7639e-06
1.86404e-06
1.41553e-07
1.86283e-06
-2.154e-07
1.86512e-06
2.69817e-07
1.8614e-06
-3.32173e-07
1.86906e-06
4.47426e-07
1.86439e-06
-3.35113e-07
1.87006e-06
2.79522e-07
1.86767e-06
-1.37557e-07
1.86917e-06
5.02031e-08
1.86843e-06
-2.3791e-08
1.86877e-06
1.25129e-08
1.86759e-06
-2.03311e-08
1.86924e-06
5.84828e-08
1.86728e-06
-6.18358e-09
1.87003e-06
7.23346e-08
1.86534e-06
1.52428e-08
1.86894e-06
8.58566e-08
1.85937e-06
5.57437e-08
1.86128e-06
1.20474e-07
1.52567e-07
1.85118e-06
1.9537e-06
1.40693e-07
1.95231e-06
-2.14013e-07
1.95489e-06
2.67244e-07
1.95097e-06
-3.28256e-07
1.95921e-06
4.39185e-07
1.9538e-06
-3.29704e-07
1.96039e-06
2.72928e-07
1.95714e-06
-1.34299e-07
1.95951e-06
4.78351e-08
1.95815e-06
-2.24337e-08
1.95923e-06
1.14289e-08
1.95744e-06
-1.85407e-08
1.95982e-06
5.61085e-08
1.9571e-06
-3.46637e-09
1.96055e-06
6.8885e-08
1.95512e-06
2.06691e-08
1.95887e-06
8.21126e-08
1.94935e-06
6.52613e-08
1.95037e-06
1.19453e-07
1.60471e-07
1.94247e-06
2.04733e-06
1.39556e-07
2.04586e-06
-2.12543e-07
2.04871e-06
2.64394e-07
2.04453e-06
-3.24079e-07
2.05338e-06
4.3033e-07
2.04718e-06
-3.23497e-07
2.0547e-06
2.65407e-07
2.05055e-06
-1.30153e-07
2.05386e-06
4.45252e-08
2.05183e-06
-2.0403e-08
2.05379e-06
9.47362e-09
2.05137e-06
-1.61229e-08
2.05456e-06
5.29221e-08
2.05116e-06
-7.1769e-11
2.05521e-06
6.48395e-08
2.04933e-06
2.65467e-08
2.05284e-06
7.85989e-08
2.04383e-06
7.4278e-08
2.0437e-06
1.19582e-07
1.66256e-07
2.03791e-06
2.1453e-06
1.38258e-07
2.14373e-06
-2.10979e-07
2.14689e-06
2.61237e-07
2.14239e-06
-3.19574e-07
2.1519e-06
4.20815e-07
2.14486e-06
-3.16456e-07
2.15334e-06
2.56931e-07
2.14825e-06
-1.25065e-07
2.15257e-06
4.02074e-08
2.14978e-06
-1.76189e-08
2.15268e-06
6.57266e-09
2.14963e-06
-1.30663e-08
2.15362e-06
4.89262e-08
2.1497e-06
3.85642e-09
2.15412e-06
6.04119e-08
2.14815e-06
3.25173e-08
2.15105e-06
7.5699e-08
2.1429e-06
8.24311e-08
2.14155e-06
1.20932e-07
1.70178e-07
2.13763e-06
2.24792e-06
1.36831e-07
2.24622e-06
-2.09281e-07
2.24972e-06
2.57733e-07
2.24482e-06
-3.14672e-07
2.25505e-06
4.10583e-07
2.24714e-06
-3.08545e-07
2.25662e-06
2.47452e-07
2.25053e-06
-1.18978e-07
2.25591e-06
3.48264e-08
2.2523e-06
-1.4005e-08
2.25617e-06
2.7059e-09
2.25249e-06
-9.39232e-09
2.25719e-06
4.42242e-08
2.25296e-06
8.09371e-09
2.25746e-06
5.59122e-08
2.25177e-06
3.82049e-08
2.25372e-06
7.37436e-08
2.24667e-06
8.94899e-08
2.2442e-06
1.23401e-07
1.72621e-07
2.24175e-06
2.35543e-06
1.35277e-07
2.35356e-06
-2.0741e-07
2.35745e-06
2.53845e-07
2.35208e-06
-3.09306e-07
2.3631e-06
3.99567e-07
2.35428e-06
-2.99725e-07
2.36482e-06
2.36909e-07
2.35768e-06
-1.11835e-07
2.36416e-06
2.83391e-08
2.35967e-06
-9.51404e-09
2.36447e-06
-2.08876e-09
2.36026e-06
-5.18787e-09
2.36546e-06
3.90223e-08
2.36122e-06
1.23347e-08
2.36543e-06
5.17076e-08
2.36036e-06
4.32761e-08
2.36116e-06
7.29389e-08
2.35525e-06
9.5405e-08
2.35191e-06
1.26733e-07
1.7402e-07
2.35052e-06
2.46808e-06
1.33589e-07
2.466e-06
-2.05327e-07
2.47032e-06
2.4953e-07
2.46442e-06
-3.03405e-07
2.47629e-06
3.87695e-07
2.46651e-06
-2.89948e-07
2.47819e-06
2.25231e-07
2.46995e-06
-1.03593e-07
2.47756e-06
2.07224e-08
2.4722e-06
-4.14964e-09
2.47781e-06
-7.70368e-09
2.47326e-06
-6.3528e-10
2.47866e-06
3.36271e-08
2.47478e-06
1.62085e-08
2.47832e-06
4.81671e-08
2.47411e-06
4.7494e-08
2.47373e-06
7.33155e-08
2.46881e-06
1.00324e-07
2.46498e-06
1.30564e-07
1.74799e-07
2.4642e-06
2.58613e-06
1.31757e-07
2.58379e-06
-2.02996e-07
2.58859e-06
2.44736e-07
2.58208e-06
-2.96899e-07
2.59489e-06
3.74886e-07
2.5841e-06
-2.79159e-07
2.59698e-06
2.12351e-07
2.58761e-06
-9.42246e-08
2.59635e-06
1.19878e-08
2.59018e-06
2.01508e-09
2.59643e-06
-1.3952e-08
2.59181e-06
3.98357e-09
2.59702e-06
2.84187e-08
2.5939e-06
1.93281e-08
2.59648e-06
4.55899e-08
2.59321e-06
5.07651e-08
2.59181e-06
7.47169e-08
2.58759e-06
1.04537e-07
2.58365e-06
1.34509e-07
1.75322e-07
2.58312e-06
2.70982e-06
1.29771e-07
2.70719e-06
-2.00369e-07
2.71253e-06
2.39399e-07
2.70534e-06
-2.89709e-07
2.71917e-06
3.61056e-07
2.70731e-06
-2.67299e-07
2.72144e-06
1.98214e-07
2.71095e-06
-8.37339e-08
2.72074e-06
2.20014e-09
2.71394e-06
8.81716e-09
2.72054e-06
-2.05494e-08
2.71624e-06
8.28165e-09
2.72084e-06
2.38173e-08
2.71881e-06
2.13564e-08
2.72027e-06
4.41344e-08
2.71786e-06
5.31693e-08
2.71574e-06
7.68429e-08
2.71191e-06
1.08366e-07
2.70814e-06
1.38276e-07
1.7583e-07
2.70763e-06
2.83942e-06
1.27614e-07
2.83644e-06
-1.97389e-07
2.84241e-06
2.33434e-07
2.83445e-06
-2.81751e-07
2.84939e-06
3.46117e-07
2.83641e-06
-2.54316e-07
2.85183e-06
1.82792e-07
2.84027e-06
-7.21729e-08
2.85097e-06
-8.50331e-09
2.8438e-06
1.59911e-08
2.85036e-06
-2.71159e-08
2.84684e-06
1.18021e-08
2.85044e-06
2.02214e-08
2.84971e-06
2.20811e-08
2.85009e-06
4.3759e-08
2.8483e-06
5.49554e-08
2.84582e-06
7.93244e-08
2.84214e-06
1.12051e-07
2.83866e-06
1.41754e-07
1.7642e-07
2.83807e-06
2.97524e-06
1.25273e-07
2.97183e-06
-1.93982e-07
2.97852e-06
2.2674e-07
2.96971e-06
-2.72934e-07
2.98584e-06
3.29986e-07
2.9717e-06
-2.40176e-07
2.98839e-06
1.66102e-07
2.97588e-06
-5.96646e-08
2.98727e-06
-1.98886e-08
2.98009e-06
2.31638e-08
2.98618e-06
-3.31998e-08
2.98391e-06
1.40684e-08
2.98619e-06
1.79465e-08
2.9868e-06
2.14702e-08
2.98635e-06
4.4202e-08
2.98482e-06
5.64879e-08
2.98233e-06
8.18126e-08
2.9787e-06
1.15686e-07
2.97542e-06
1.45037e-07
1.77091e-07
2.97474e-06
3.11755e-06
1.22728e-07
3.11363e-06
-1.90059e-07
3.12117e-06
2.19196e-07
3.11141e-06
-2.6317e-07
3.1288e-06
3.12593e-07
3.1135e-06
-2.2488e-07
3.13138e-06
1.48224e-07
3.11814e-06
-4.64206e-08
3.12987e-06
-3.16187e-08
3.12317e-06
2.9862e-08
3.12828e-06
-3.8312e-08
3.12769e-06
1.46569e-08
3.12849e-06
1.71512e-08
3.13025e-06
1.9705e-08
3.12944e-06
4.5019e-08
3.12778e-06
5.8144e-08
3.12555e-06
8.40436e-08
3.122e-06
1.19238e-07
3.11868e-06
1.48357e-07
1.77833e-07
3.11794e-06
3.26668e-06
1.19961e-07
3.26213e-06
-1.85517e-07
3.27066e-06
2.1067e-07
3.25987e-06
-2.52378e-07
3.27856e-06
2.93899e-07
3.26217e-06
-2.08486e-07
3.28107e-06
1.29325e-07
3.26741e-06
-3.27595e-08
3.27904e-06
-4.32543e-08
3.27336e-06
3.5548e-08
3.27704e-06
-4.1991e-08
3.2784e-06
1.32915e-08
3.27779e-06
1.77617e-08
3.28033e-06
1.71633e-08
3.27966e-06
4.56889e-08
3.27761e-06
6.01976e-08
3.27574e-06
8.59116e-08
3.2724e-06
1.22582e-07
3.26879e-06
1.51965e-07
1.78743e-07
3.26788e-06
3.42294e-06
1.16955e-07
3.41766e-06
-1.80243e-07
3.42731e-06
2.01027e-07
3.41544e-06
-2.40508e-07
3.43542e-06
2.73919e-07
3.41806e-06
-1.91132e-07
3.43772e-06
1.09672e-07
3.42406e-06
-1.91075e-08
3.43509e-06
-5.42813e-08
3.43096e-06
3.96796e-08
3.43285e-06
-4.3885e-08
3.4362e-06
9.94538e-09
3.43455e-06
1.941e-08
3.43733e-06
1.43831e-08
3.43727e-06
4.57485e-08
3.43467e-06
6.28039e-08
3.43299e-06
8.75873e-08
3.43004e-06
1.25535e-07
3.4261e-06
1.55903e-07
1.80094e-07
3.42475e-06
3.58667e-06
1.13694e-07
3.58056e-06
-1.74127e-07
3.59143e-06
1.90154e-07
3.57848e-06
-2.27557e-07
3.59965e-06
2.52743e-07
3.58158e-06
-1.73062e-07
3.60161e-06
8.96475e-08
3.58849e-06
-5.9886e-09
3.59836e-06
-6.41533e-08
3.59625e-06
4.1789e-08
3.5962e-06
-4.38363e-08
3.60127e-06
4.87736e-09
3.59917e-06
2.15107e-08
3.60159e-06
1.19646e-08
3.60231e-06
4.50256e-08
3.59888e-06
6.62321e-08
3.59691e-06
8.95584e-08
3.59451e-06
1.27942e-07
3.59069e-06
1.59724e-07
1.82148e-07
3.58863e-06
3.75823e-06
1.10168e-07
3.75118e-06
-1.67075e-07
3.76335e-06
1.77982e-07
3.74939e-06
-2.13597e-07
3.77157e-06
2.30566e-07
3.75314e-06
-1.54639e-07
3.77306e-06
6.97366e-08
3.76104e-06
6.02995e-09
3.76926e-06
-7.23746e-08
3.76947e-06
4.1579e-08
3.76757e-06
-4.19342e-08
3.77385e-06
-1.40706e-09
3.77191e-06
2.34514e-08
3.77329e-06
1.05844e-08
3.77422e-06
4.40962e-08
3.76959e-06
7.08587e-08
3.76675e-06
9.2397e-08
3.76492e-06
1.29772e-07
3.76199e-06
1.62656e-07
1.84532e-07
3.75961e-06
3.93798e-06
1.06374e-07
3.92993e-06
-1.59025e-07
3.9434e-06
1.64518e-07
3.9286e-06
-1.98804e-07
3.95146e-06
2.07704e-07
3.93316e-06
-1.36337e-07
3.95241e-06
5.04927e-08
3.94204e-06
1.63933e-08
3.94824e-06
-7.8567e-08
3.9508e-06
3.90146e-08
3.94737e-06
-3.85024e-08
3.9542e-06
-8.23891e-09
3.95271e-06
2.49405e-08
3.95206e-06
1.12361e-08
3.95184e-06
4.43204e-08
3.94644e-06
7.62574e-08
3.9426e-06
9.62371e-08
3.94126e-06
1.31113e-07
3.93957e-06
1.64343e-07
1.86153e-07
3.93795e-06
4.1263e-06
1.0232e-07
4.11724e-06
-1.49963e-07
4.13188e-06
1.49879e-07
4.11656e-06
-1.8348e-07
4.13966e-06
1.84601e-07
4.12205e-06
-1.18725e-07
4.14005e-06
3.24875e-08
4.1318e-06
2.46424e-08
4.13578e-06
-8.25438e-08
4.14047e-06
3.43285e-08
4.1359e-06
-3.39351e-08
4.14241e-06
-1.47481e-08
4.14097e-06
2.63792e-08
4.13709e-06
1.51191e-08
4.13572e-06
4.56907e-08
4.13033e-06
8.16417e-08
4.12587e-06
1.00705e-07
4.12485e-06
1.32126e-07
4.12433e-06
1.6486e-07
1.86336e-07
4.12415e-06
4.3236e-06
9.80241e-08
4.31358e-06
-1.39944e-07
4.32913e-06
1.3433e-07
4.31371e-06
-1.68063e-07
4.33651e-06
1.61806e-07
4.32018e-06
-1.02399e-07
4.33645e-06
1.62139e-08
4.33057e-06
3.053e-08
4.33238e-06
-8.43598e-08
4.3387e-06
2.80112e-08
4.3332e-06
-2.84311e-08
4.3383e-06
-1.98514e-08
4.33585e-06
2.88238e-08
4.32944e-06
2.15296e-08
4.3274e-06
4.77331e-08
4.32275e-06
8.6295e-08
4.31808e-06
1.05376e-07
4.3172e-06
1.33006e-07
4.31786e-06
1.64197e-07
1.85358e-07
4.31884e-06
4.53028e-06
9.35227e-08
4.51943e-06
-1.29099e-07
4.53546e-06
1.18297e-07
4.5205e-06
-1.53102e-07
4.54241e-06
1.39901e-07
4.52789e-06
-8.7879e-08
4.54215e-06
1.94887e-09
4.53855e-06
3.41371e-08
4.53847e-06
-8.42799e-08
4.54563e-06
2.08471e-08
4.53907e-06
-2.18748e-08
4.54171e-06
-2.2488e-08
4.53854e-06
3.1998e-08
4.53071e-06
2.93579e-08
4.5282e-06
5.02382e-08
4.52467e-06
8.98322e-08
4.52013e-06
1.09915e-07
4.51928e-06
1.33847e-07
4.52103e-06
1.6245e-07
1.83681e-07
4.52271e-06
4.74677e-06
8.88658e-08
4.73532e-06
-1.17651e-07
4.75124e-06
1.02378e-07
4.73735e-06
-1.39209e-07
4.75785e-06
1.19404e-07
4.74545e-06
-7.54805e-08
4.75775e-06
-1.03534e-08
4.756e-06
3.58897e-08
4.75427e-06
-8.25555e-08
4.76141e-06
1.37072e-08
4.75356e-06
-1.40184e-08
4.75334e-06
-2.22749e-08
4.75044e-06
3.49049e-08
4.74198e-06
3.78199e-08
4.73904e-06
5.31723e-08
4.73662e-06
9.22486e-08
4.7325e-06
1.14043e-07
4.73179e-06
1.34555e-07
4.7341e-06
1.60136e-07
1.81352e-07
4.73643e-06
4.97355e-06
8.41166e-08
4.96179e-06
-1.05893e-07
4.97688e-06
8.7281e-08
4.96463e-06
-1.26954e-07
4.98342e-06
1.0061e-07
4.97311e-06
-6.517e-08
4.98378e-06
-2.10175e-08
4.98327e-06
3.64009e-08
4.9799e-06
-7.91906e-08
4.9863e-06
7.30358e-09
4.97739e-06
-5.09979e-09
4.97453e-06
-1.94176e-08
4.97237e-06
3.7066e-08
4.96401e-06
4.61803e-08
4.96055e-06
5.66288e-08
4.95904e-06
9.37557e-08
4.95562e-06
1.17472e-07
4.9551e-06
1.35068e-07
4.95748e-06
1.57754e-07
1.78297e-07
4.96054e-06
5.21109e-06
7.9346e-08
5.19936e-06
-9.41695e-08
5.21291e-06
7.37393e-08
5.20269e-06
-1.16735e-07
5.21982e-06
8.34776e-08
5.2112e-06
-5.65532e-08
5.2206e-06
-3.04163e-08
5.2208e-06
3.61984e-08
5.21547e-06
-7.38595e-08
5.22081e-06
1.96614e-09
5.21145e-06
4.25791e-09
5.20641e-06
-1.43758e-08
5.20495e-06
3.85272e-08
5.1973e-06
5.38248e-08
5.19326e-06
6.06731e-08
5.19236e-06
9.46555e-08
5.18994e-06
1.19888e-07
5.18948e-06
1.3553e-07
5.19179e-06
1.5545e-07
1.74606e-07
5.19548e-06
5.45991e-06
7.46232e-08
5.44859e-06
-8.28447e-08
5.46004e-06
6.22858e-08
5.45183e-06
-1.08521e-07
5.46765e-06
6.76584e-08
5.4602e-06
-4.91105e-08
5.46839e-06
-3.86044e-08
5.46916e-06
3.5427e-08
5.4615e-06
-6.61925e-08
5.46556e-06
-2.10186e-09
5.45659e-06
1.32326e-08
5.44985e-06
-7.63288e-09
5.44883e-06
3.95471e-08
5.44225e-06
6.04021e-08
5.43768e-06
6.524e-08
5.43709e-06
9.52425e-08
5.43586e-06
1.2112e-07
5.43536e-06
1.36032e-07
5.4376e-06
1.53212e-07
1.70461e-07
5.44174e-06
5.72058e-06
7.00054e-08
5.71e-06
-7.22647e-08
5.71919e-06
5.30906e-08
5.71239e-06
-1.01717e-07
5.7274e-06
5.26451e-08
5.72069e-06
-4.24048e-08
5.72739e-06
-4.52954e-08
5.72883e-06
3.398e-08
5.71886e-06
-5.62186e-08
5.72141e-06
-4.65438e-09
5.71341e-06
2.1229e-08
5.70557e-06
2.11852e-10
5.70463e-06
4.04877e-08
5.69923e-06
6.57965e-08
5.69434e-06
7.01393e-08
5.69386e-06
9.57229e-08
5.69371e-06
1.21267e-07
5.69331e-06
1.3643e-07
5.69549e-06
1.51037e-07
1.66054e-07
5.69989e-06
5.99367e-06
6.55305e-08
5.98415e-06
-6.27437e-08
5.99121e-06
4.60278e-08
5.98484e-06
-9.5347e-08
5.99947e-06
3.80178e-08
5.9933e-06
-3.62386e-08
5.99802e-06
-5.00133e-08
6.00016e-06
3.18437e-08
5.98856e-06
-4.46263e-08
5.98928e-06
-5.3667e-09
5.98261e-06
2.78895e-08
5.97411e-06
8.71157e-09
5.97299e-06
4.16119e-08
5.96874e-06
7.00514e-08
5.96375e-06
7.51292e-08
5.96327e-06
9.61936e-08
5.96391e-06
1.20628e-07
5.96389e-06
1.36457e-07
5.96602e-06
1.48901e-07
1.61546e-07
5.97053e-06
6.27981e-06
6.12116e-08
6.27158e-06
-5.45131e-08
6.27684e-06
4.07609e-08
6.26988e-06
-8.83817e-08
6.28415e-06
2.37464e-08
6.27867e-06
-3.0761e-08
6.28099e-06
-5.23348e-08
6.28347e-06
2.9366e-08
6.27128e-06
-3.24332e-08
6.27014e-06
-4.2275e-09
6.26474e-06
3.32908e-08
6.25605e-06
1.74027e-08
6.25453e-06
4.31279e-08
6.2513e-06
7.32812e-08
6.24646e-06
7.99687e-08
6.24595e-06
9.6705e-08
6.24707e-06
1.19507e-07
6.24763e-06
1.35896e-07
6.2498e-06
1.46729e-07
1.5705e-07
6.2543e-06
6.57964e-06
5.70384e-08
6.57277e-06
-4.76449e-08
6.57675e-06
3.67826e-08
6.56843e-06
-8.00544e-08
6.58186e-06
1.03107e-08
6.57737e-06
-2.62731e-08
6.57719e-06
-5.21516e-08
6.57957e-06
2.69894e-08
6.5676e-06
-2.0471e-08
6.5648e-06
-1.42804e-09
6.56045e-06
3.76497e-08
6.55192e-06
2.59315e-08
6.54988e-06
4.51607e-08
6.54753e-06
7.56303e-08
6.54308e-06
8.44259e-08
6.54246e-06
9.73214e-08
6.54386e-06
1.18105e-07
6.5451e-06
1.34655e-07
6.54743e-06
1.44408e-07
1.52614e-07
6.55186e-06
6.89385e-06
5.29835e-08
6.88819e-06
-4.19942e-08
6.89153e-06
3.34482e-08
6.88155e-06
-7.00766e-08
6.89313e-06
-1.26524e-09
6.88995e-06
-2.30941e-08
6.88748e-06
-4.96867e-08
6.88949e-06
2.49829e-08
6.87814e-06
-9.12363e-09
6.87406e-06
2.6542e-09
6.87043e-06
4.12779e-08
6.8623e-06
3.40596e-08
6.85972e-06
4.77478e-08
6.85808e-06
7.72679e-08
6.85422e-06
8.8286e-08
6.85343e-06
9.81083e-08
6.855e-06
1.16538e-07
6.85691e-06
1.32743e-07
6.8595e-06
1.4182e-07
1.48233e-07
6.86388e-06
7.22311e-06
4.90076e-08
7.21836e-06
-3.72429e-08
7.22175e-06
3.00637e-08
7.21022e-06
-5.85479e-08
7.21886e-06
-9.90574e-09
7.21679e-06
-2.10315e-08
7.21269e-06
-4.55828e-08
7.21403e-06
2.36472e-08
7.20361e-06
1.29028e-09
7.19857e-06
7.69334e-09
7.19542e-06
4.4427e-08
7.18783e-06
4.16556e-08
7.18472e-06
5.08572e-08
7.18361e-06
7.83775e-08
7.18053e-06
9.13696e-08
7.17955e-06
9.90794e-08
7.1812e-06
1.1489e-07
7.18372e-06
1.3023e-07
7.18667e-06
1.38866e-07
1.43862e-07
7.19104e-06
7.56817e-06
4.50599e-08
7.56395e-06
-3.30211e-08
7.56789e-06
2.61302e-08
7.55536e-06
-4.60201e-08
7.5602e-06
-1.47488e-08
7.55873e-06
-1.9558e-08
7.55356e-06
-4.04138e-08
7.55407e-06
2.31392e-08
7.54466e-06
1.06956e-08
7.53905e-06
1.33075e-08
7.53615e-06
4.7323e-08
7.52917e-06
4.86315e-08
7.52561e-06
5.44213e-08
7.52485e-06
7.91409e-08
7.52265e-06
9.35685e-08
7.52157e-06
1.00156e-07
7.52322e-06
1.13239e-07
7.52622e-06
1.27229e-07
7.52961e-06
1.35478e-07
1.3943e-07
7.53404e-06
7.92978e-06
4.10938e-08
7.92565e-06
-2.88973e-08
7.93054e-06
2.12412e-08
7.91764e-06
-3.31209e-08
7.91852e-06
-1.56222e-08
7.91669e-06
-1.77353e-08
7.91085e-06
-3.45663e-08
7.91051e-06
2.34808e-08
7.90211e-06
1.9092e-08
7.89616e-06
1.92566e-08
7.89339e-06
5.00912e-08
7.88707e-06
5.49491e-08
7.88313e-06
5.83608e-08
7.88255e-06
7.97203e-08
7.88126e-06
9.4864e-08
7.88024e-06
1.01173e-07
7.88184e-06
1.11641e-07
7.88519e-06
1.23879e-07
7.88903e-06
1.31635e-07
1.34854e-07
7.89361e-06
8.30869e-06
3.70871e-08
8.30439e-06
-2.4598e-08
8.31014e-06
1.54911e-08
8.29776e-06
-2.07455e-08
8.29483e-06
-1.26887e-08
8.29188e-06
-1.47883e-08
8.28543e-06
-2.81118e-08
8.28424e-06
2.46658e-08
8.27673e-06
2.66039e-08
8.27065e-06
2.53417e-08
8.26794e-06
5.27937e-08
8.26229e-06
6.0602e-08
8.25809e-06
6.25625e-08
8.25755e-06
8.02641e-08
8.25708e-06
9.5328e-08
8.25633e-06
1.01927e-07
8.25787e-06
1.10099e-07
8.26142e-06
1.20325e-07
8.26569e-06
1.27371e-07
1.30056e-07
8.27048e-06
8.7057e-06
3.30511e-08
8.70114e-06
-2.00443e-08
8.7072e-06
9.43962e-09
8.69639e-06
-9.94235e-09
8.68994e-06
-6.23641e-09
8.68531e-06
-1.01543e-08
8.67833e-06
-2.11358e-08
8.6763e-06
2.66915e-08
8.66937e-06
3.35387e-08
8.66326e-06
3.14484e-08
8.66062e-06
5.54319e-08
8.65562e-06
6.56026e-08
8.6513e-06
6.68863e-08
8.65069e-06
8.08756e-08
8.65089e-06
9.51286e-08
8.6506e-06
1.02215e-07
8.65214e-06
1.08555e-07
8.65578e-06
1.16692e-07
8.66038e-06
1.22768e-07
1.24993e-07
8.66544e-06
9.12164e-06
2.90296e-08
9.11677e-06
-1.51724e-08
9.12269e-06
3.51524e-09
9.11375e-06
-9.97822e-10
9.10472e-06
2.78956e-09
9.09813e-06
-3.56634e-09
9.09051e-06
-1.35088e-08
9.08757e-06
2.96303e-08
9.08103e-06
4.00741e-08
9.07484e-06
3.7638e-08
9.07226e-06
5.80112e-08
9.06793e-06
6.99407e-08
9.06362e-06
7.11967e-08
9.06287e-06
8.16201e-08
9.06354e-06
9.44641e-08
9.06386e-06
1.01893e-07
9.06552e-06
1.06898e-07
9.06916e-06
1.1305e-07
9.07399e-06
1.17937e-07
1.19667e-07
9.07931e-06
9.55738e-06
2.51049e-08
9.55211e-06
-9.89527e-09
9.55743e-06
-1.80647e-09
9.55055e-06
5.88495e-09
9.53987e-06
1.34655e-08
9.53122e-06
5.07993e-09
9.52281e-06
-5.09362e-09
9.51903e-06
3.34137e-08
9.51266e-06
4.644e-08
9.50634e-06
4.39592e-08
9.50374e-06
6.06134e-08
9.50008e-06
7.35948e-08
9.49594e-06
7.53439e-08
9.49498e-06
8.25724e-08
9.49596e-06
9.34875e-08
9.49694e-06
1.00915e-07
9.49884e-06
1.04999e-07
9.50248e-06
1.09407e-07
9.50743e-06
1.12981e-07
1.1412e-07
9.51298e-06
1.00138e-05
2.14019e-08
1.00083e-05
-4.36641e-09
1.00124e-05
-5.85534e-09
1.00075e-05
1.0756e-08
9.996e-06
2.49508e-08
9.98537e-06
1.57097e-08
9.97613e-06
4.15183e-09
9.97157e-06
3.79674e-08
9.96517e-06
5.28376e-08
9.95875e-06
5.03837e-08
9.95599e-06
6.33781e-08
9.95298e-06
7.65957e-08
9.94918e-06
7.9147e-08
9.94796e-06
8.37988e-08
9.94913e-06
9.23143e-08
9.95073e-06
9.93123e-08
9.95299e-06
1.02744e-07
9.95668e-06
1.05714e-07
9.96169e-06
1.07972e-07
1.08414e-07
9.9674e-06
1.0492e-05
1.80638e-08
1.04866e-05
1.02602e-09
1.04884e-05
-7.65007e-09
1.04854e-05
1.37447e-08
1.04739e-05
3.64443e-08
1.04616e-05
2.8019e-08
1.04514e-05
1.43481e-08
1.04461e-05
4.32647e-08
1.04396e-05
5.93279e-08
1.04331e-05
5.69299e-08
1.043e-05
6.63914e-08
1.04276e-05
7.90635e-08
1.04243e-05
8.24329e-08
1.04228e-05
8.52875e-08
1.0424e-05
9.10696e-08
1.04262e-05
9.71697e-08
1.04289e-05
1.00052e-07
1.04327e-05
1.01889e-07
1.04377e-05
1.02933e-07
1.02611e-07
1.04435e-05
1.09929e-05
1.52248e-08
1.09881e-05
5.78649e-09
1.09868e-05
-6.33288e-09
1.09849e-05
1.56613e-08
1.09744e-05
4.68661e-08
1.09609e-05
4.15792e-08
1.09496e-05
2.56764e-08
1.09436e-05
4.92632e-08
1.0937e-05
6.5891e-08
1.09303e-05
6.36651e-08
1.0927e-05
6.96739e-08
1.09249e-05
8.11514e-08
1.09222e-05
8.51196e-08
1.09206e-05
8.6878e-08
1.09218e-05
8.99117e-08
1.09243e-05
9.46075e-08
1.09275e-05
9.68822e-08
1.09315e-05
9.7841e-08
1.09366e-05
9.78435e-08
9.67528e-08
1.09425e-05
1.15176e-05
1.29688e-08
1.1513e-05
1.03946e-08
1.15096e-05
-2.87891e-09
1.15072e-05
1.80655e-08
1.14981e-05
5.59382e-08
1.14842e-05
5.54197e-08
1.14717e-05
3.81858e-08
1.1465e-05
5.59759e-08
1.14584e-05
7.25254e-08
1.14514e-05
7.06226e-08
1.14478e-05
7.32791e-08
1.1446e-05
8.2972e-08
1.14439e-05
8.72316e-08
1.14425e-05
8.83117e-08
1.14434e-05
8.89845e-08
1.14462e-05
9.17743e-08
1.14498e-05
9.32525e-08
1.14542e-05
9.34914e-08
1.14594e-05
9.26464e-08
9.08463e-08
1.14653e-05
1.20674e-05
1.13427e-08
1.20629e-05
1.49552e-08
1.20574e-05
2.6496e-09
1.20538e-05
2.15994e-08
1.2046e-05
6.37226e-08
1.20325e-05
6.895e-08
1.20192e-05
5.15195e-08
1.20116e-05
6.3541e-08
1.20049e-05
7.92585e-08
1.19977e-05
7.78001e-08
1.19937e-05
7.72892e-08
1.1992e-05
8.46231e-08
1.19905e-05
8.88154e-08
1.19894e-05
8.93746e-08
1.19901e-05
8.83097e-08
1.1993e-05
8.88392e-08
1.1997e-05
8.92442e-08
1.20017e-05
8.87899e-08
1.20071e-05
8.72687e-08
8.48648e-08
1.20131e-05
1.26436e-05
1.03734e-08
1.26389e-05
1.96089e-08
1.26316e-05
9.98219e-09
1.26264e-05
2.67603e-08
1.26193e-05
7.08149e-08
1.26066e-05
8.16444e-08
1.25931e-05
6.50866e-08
1.25845e-05
7.20668e-08
1.25776e-05
8.61479e-08
1.25703e-05
8.51848e-08
1.25657e-05
8.18045e-08
1.25641e-05
8.62321e-08
1.25631e-05
8.98966e-08
1.25624e-05
8.99945e-08
1.2563e-05
8.77141e-08
1.25659e-05
8.59734e-08
1.25701e-05
8.49912e-08
1.25752e-05
8.37407e-08
1.25808e-05
8.16397e-08
7.87522e-08
1.25869e-05
1.32473e-05
1.00566e-08
1.32425e-05
2.43787e-08
1.32334e-05
1.90492e-08
1.32264e-05
3.37262e-08
1.32196e-05
7.77052e-08
1.32078e-05
9.33888e-08
1.31944e-05
7.84895e-08
1.31851e-05
8.13937e-08
1.31779e-05
9.33204e-08
1.31704e-05
9.2739e-08
1.31652e-05
8.6927e-08
1.31635e-05
8.79835e-08
1.31629e-05
9.05206e-08
1.31627e-05
9.01818e-08
1.31634e-05
8.6941e-08
1.31662e-05
8.3261e-08
1.31705e-05
8.06276e-08
1.31758e-05
7.84285e-08
1.31818e-05
7.57122e-08
7.24268e-08
1.31881e-05
1.38798e-05
1.03724e-08
1.38746e-05
2.96236e-08
1.38643e-05
2.93167e-08
1.38556e-05
4.24605e-08
1.38484e-05
8.49451e-08
1.38374e-05
1.04303e-07
1.38244e-05
9.15097e-08
1.38145e-05
9.1296e-08
1.3807e-05
1.00891e-07
1.37993e-05
1.00435e-07
1.37935e-05
9.26775e-08
1.37914e-05
9.01323e-08
1.37911e-05
9.08125e-08
1.37913e-05
8.99469e-08
1.37924e-05
8.58533e-08
1.3795e-05
8.06157e-08
1.37994e-05
7.6215e-08
1.38049e-05
7.29937e-08
1.38111e-05
6.95128e-08
6.57606e-08
1.38177e-05
1.45427e-05
1.12879e-08
1.45368e-05
3.56004e-08
1.45258e-05
4.03212e-08
1.45155e-05
5.27329e-08
1.45075e-05
9.29336e-08
1.44971e-05
1.14747e-07
1.44844e-05
1.04212e-07
1.44741e-05
1.01537e-07
1.44661e-05
1.08886e-07
1.44582e-05
1.0831e-07
1.44519e-05
9.89943e-08
1.44491e-05
9.29243e-08
1.44489e-05
9.10127e-08
1.44496e-05
8.92894e-08
1.4451e-05
8.44656e-08
1.44537e-05
7.78798e-08
1.44582e-05
7.17425e-08
1.44638e-05
6.74302e-08
1.447e-05
6.32336e-08
5.8552e-08
1.44772e-05
1.52374e-05
1.27773e-08
1.52309e-05
4.21042e-08
1.52188e-05
5.24253e-08
1.52075e-05
6.40065e-08
1.51987e-05
1.0176e-07
1.51882e-05
1.25268e-07
1.51757e-05
1.1672e-07
1.51652e-05
1.12018e-07
1.51568e-05
1.17253e-07
1.51487e-05
1.16421e-07
1.51419e-05
1.0584e-07
1.51383e-05
9.64967e-08
1.51378e-05
9.14655e-08
1.51388e-05
8.82678e-08
1.51405e-05
8.28163e-08
1.51434e-05
7.4979e-08
1.51479e-05
6.72741e-08
1.51538e-05
6.14899e-08
1.51602e-05
5.68632e-08
5.0992e-08
1.51677e-05
1.59653e-05
1.48343e-08
1.5958e-05
4.93814e-08
1.59454e-05
6.50662e-08
1.59331e-05
7.63087e-08
1.59233e-05
1.1147e-07
1.59125e-05
1.36062e-07
1.58999e-05
1.29377e-07
1.58891e-05
1.22804e-07
1.58804e-05
1.25965e-07
1.5872e-05
1.24783e-07
1.58646e-05
1.13234e-07
1.58602e-05
1.00901e-07
1.58592e-05
9.25076e-08
1.58604e-05
8.70883e-08
1.58622e-05
8.09451e-08
1.58653e-05
7.1908e-08
1.58698e-05
6.27697e-08
1.58759e-05
5.53711e-08
1.58833e-05
4.94511e-08
4.41608e-08
1.58902e-05
1.6728e-05
1.74364e-08
1.672e-05
5.7336e-08
1.6707e-05
7.81534e-08
1.66937e-05
8.95774e-08
1.66832e-05
1.2198e-07
1.66719e-05
1.47357e-07
1.66588e-05
1.42456e-07
1.66475e-05
1.34158e-07
1.66383e-05
1.3507e-07
1.66297e-05
1.3343e-07
1.66217e-05
1.21203e-07
1.66164e-05
1.0619e-07
1.66146e-05
9.43657e-08
1.66155e-05
8.61326e-08
1.66176e-05
7.89199e-08
1.66208e-05
6.8676e-08
1.66255e-05
5.81004e-08
1.66318e-05
4.9012e-08
1.66395e-05
4.17687e-08
3.65413e-08
1.66471e-05
1.75272e-05
2.05496e-08
1.75193e-05
6.52937e-08
1.75053e-05
9.21721e-08
1.7491e-05
1.03828e-07
1.74797e-05
1.33269e-07
1.74679e-05
1.59214e-07
1.74541e-05
1.5619e-07
1.74419e-05
1.46383e-07
1.74322e-05
1.44755e-07
1.74232e-05
1.42449e-07
1.74146e-05
1.2979e-07
1.74084e-05
1.12454e-07
1.74055e-05
9.72141e-08
1.74058e-05
8.58556e-08
1.74078e-05
7.68938e-08
1.74112e-05
6.52645e-08
1.74162e-05
5.31658e-08
1.74227e-05
4.24556e-08
1.74306e-05
3.38749e-08
2.77139e-08
1.74394e-05
1.83648e-05
2.41249e-08
1.83565e-05
7.35425e-08
1.83422e-05
1.06493e-07
1.83269e-05
1.19149e-07
1.83146e-05
1.45541e-07
1.83023e-05
1.71528e-07
1.82878e-05
1.70731e-07
1.82743e-05
1.59797e-07
1.82637e-05
1.55386e-07
1.82542e-05
1.52003e-07
1.82448e-05
1.39099e-07
1.82375e-05
1.19814e-07
1.82335e-05
1.01245e-07
1.82326e-05
8.66639e-08
1.82344e-05
7.51429e-08
1.82379e-05
6.17258e-08
1.82431e-05
4.79591e-08
1.825e-05
3.55619e-08
1.82585e-05
2.54445e-08
1.80654e-08
1.82681e-05
1.92424e-05
2.80753e-08
1.9234e-05
8.20194e-08
1.92195e-05
1.20908e-07
1.92031e-05
1.35549e-07
1.91899e-05
1.58808e-07
1.91769e-05
1.84556e-07
1.91615e-05
1.86103e-07
1.91467e-05
1.74613e-07
1.91346e-05
1.67404e-07
1.91242e-05
1.62454e-07
1.9114e-05
1.49319e-07
1.91053e-05
1.2847e-07
1.90999e-05
1.06713e-07
1.90977e-05