/*--------------------------------*- C++ -*----------------------------------*\
| =========                 |                                                 |
| \\      /  F ield         | OpenFOAM: The Open Source CFD Toolbox           |
|  \\    /   O peration     | Version:  v2012                                 |
|   \\  /    A nd           | Website:  www.openfoam.com                      |
|    \\/     M anipulation  |                                                 |
\*---------------------------------------------------------------------------*/
FoamFile
{
    version     2.0;
    format      ascii;
    class       volScalarField;
    location    "3.75";
    object      p;
}
// * * * * * * * * * * * * * * * * * * * * * * * * * * * * * * * * * * * * * //

dimensions      [0 2 -2 0 0 0 0];


internalField   nonuniform List<scalar> 
17600
(
-5.4212e-11
-0.00232469
-0.00335955
-0.00279753
-0.00347312
-0.0033139
-0.00425622
-0.00494379
-0.00520507
-0.00540922
-0.0059767
-0.00629557
-0.00654789
-0.00641062
-0.00633051
-0.0056254
-0.00498658
-0.00347742
-0.00169592
0.00190422
1.23967e-06
-0.00232793
-0.0033585
-0.00279824
-0.00347237
-0.00331988
-0.0042545
-0.00494666
-0.00520272
-0.00541197
-0.00597285
-0.00629945
-0.00654334
-0.00641733
-0.00632522
-0.00565555
-0.00497663
-0.00353831
-0.00168165
0.00161516
1.65349e-06
-0.00233256
-0.0033557
-0.00279937
-0.00347152
-0.00332658
-0.00425201
-0.00495048
-0.00519979
-0.00541612
-0.00596838
-0.0063056
-0.00653765
-0.00642745
-0.00631847
-0.00568092
-0.00496612
-0.00360393
-0.00168154
0.00121155
-3.80766e-08
-0.00233706
-0.00335129
-0.00280013
-0.00347099
-0.00333356
-0.0042497
-0.00495436
-0.00519729
-0.00542042
-0.00596422
-0.00631239
-0.00653212
-0.00643874
-0.00631129
-0.00570729
-0.00495908
-0.00366697
-0.00171189
0.000815661
-3.67187e-06
-0.00234113
-0.00334531
-0.00280065
-0.00347087
-0.00334111
-0.00424754
-0.00495847
-0.00519496
-0.00542489
-0.00595995
-0.00631978
-0.00652625
-0.00645126
-0.00630367
-0.00573605
-0.00495454
-0.00373282
-0.00177333
0.000441181
-8.89739e-06
-0.00234465
-0.00333801
-0.00280121
-0.00347113
-0.00334935
-0.0042454
-0.00496295
-0.00519249
-0.00542958
-0.00595533
-0.00632781
-0.00651995
-0.00646497
-0.00629597
-0.00576693
-0.00495321
-0.0038025
-0.00186399
9.01413e-05
-1.53704e-05
-0.00234751
-0.00332979
-0.00280196
-0.00347162
-0.00335825
-0.0042432
-0.0049678
-0.00518965
-0.00543445
-0.00595034
-0.00633643
-0.00651346
-0.00647966
-0.00628886
-0.00579927
-0.00495702
-0.00387535
-0.00198241
-0.000241791
-2.27125e-05
-0.00234976
-0.00332102
-0.00280289
-0.00347217
-0.00336772
-0.00424086
-0.00497302
-0.00518635
-0.0054395
-0.00594505
-0.00634562
-0.00650705
-0.00649513
-0.00628321
-0.00583219
-0.00496842
-0.00395041
-0.00212738
-0.00056087
-3.05763e-05
-0.00235151
-0.00331188
-0.00280394
-0.00347263
-0.00337768
-0.00423833
-0.00497862
-0.00518259
-0.00544474
-0.00593954
-0.00635538
-0.00650097
-0.00651114
-0.00627985
-0.00586477
-0.00498959
-0.00402726
-0.00229714
-0.00087334
-3.87202e-05
-0.00235294
-0.00330243
-0.00280504
-0.00347293
-0.00338812
-0.00423564
-0.00498462
-0.0051784
-0.00545016
-0.00593394
-0.0063656
-0.00649552
-0.00652733
-0.00627962
-0.00589629
-0.00502218
-0.00410619
-0.00248899
-0.00118467
-4.70141e-05
-0.00235422
-0.0032927
-0.00280613
-0.00347303
-0.003399
-0.0042328
-0.00499104
-0.00517383
-0.00545569
-0.0059284
-0.00637609
-0.00649113
-0.00654314
-0.00628337
-0.00592633
-0.00506726
-0.00418854
-0.00269919
-0.00149905
-5.53998e-05
-0.00235546
-0.00328269
-0.0028072
-0.00347295
-0.0034103
-0.00422985
-0.00499785
-0.00516896
-0.00546123
-0.00592313
-0.00638656
-0.0064883
-0.00655794
-0.006292
-0.00595319
-0.00512504
-0.00427676
-0.0029235
-0.00181908
-6.38515e-05
-0.00235674
-0.00327237
-0.0028082
-0.0034727
-0.00342198
-0.00422682
-0.00500501
-0.00516387
-0.00546662
-0.00591838
-0.00639664
-0.00648758
-0.00657119
-0.00630645
-0.00598042
-0.0051947
-0.00437389
-0.0031579
-0.00214583
-7.23554e-05
-0.00235808
-0.00326177
-0.00280911
-0.00347231
-0.00343401
-0.00422375
-0.00501244
-0.0051587
-0.00547164
-0.00591447
-0.00640594
-0.00648952
-0.00658256
-0.0063272
-0.00600809
-0.00527476
-0.00448287
-0.00339934
-0.00247912
-8.09043e-05
-0.00235949
-0.00325091
-0.00280988
-0.00347179
-0.00344636
-0.00422072
-0.00502003
-0.00515364
-0.00547602
-0.00591178
-0.00641405
-0.00649454
-0.0065921
-0.00635419
-0.00603817
-0.0053636
-0.00460585
-0.00364602
-0.00281784
-8.94996e-05
-0.00236095
-0.00323984
-0.00281045
-0.00347121
-0.00345896
-0.0042178
-0.00502758
-0.0051489
-0.00547945
-0.00591066
-0.00642068
-0.00650292
-0.00660019
-0.00638693
-0.00607294
-0.00545993
-0.00474436
-0.00389711
-0.00316017
-9.81535e-05
-0.0023624
-0.0032286
-0.00281073
-0.00347061
-0.00347174
-0.00421513
-0.0050349
-0.00514475
-0.00548162
-0.00591142
-0.00642567
-0.00651474
-0.00660772
-0.00642442
-0.00611441
-0.00556321
-0.00489903
-0.00415249
-0.00350385
-0.000106889
-0.00236378
-0.00321725
-0.00281064
-0.00347007
-0.00348458
-0.00421288
-0.00504177
-0.00514144
-0.00548227
-0.00591428
-0.00642904
-0.00652991
-0.0066161
-0.00646555
-0.00616407
-0.00567347
-0.00506946
-0.00441284
-0.00384673
-0.00011574
-0.00236498
-0.00320589
-0.00281007
-0.00346972
-0.00349732
-0.00421121
-0.00504798
-0.00513923
-0.00548135
-0.00591927
-0.00643102
-0.00654798
-0.00662665
-0.00650973
-0.00622324
-0.00579112
-0.00525453
-0.00467938
-0.00418714
-0.000124756
-0.00236587
-0.0031946
-0.00280885
-0.00346967
-0.0035098
-0.00421031
-0.00505334
-0.0051383
-0.00547886
-0.00592612
-0.0064323
-0.00656799
-0.00664036
-0.00655682
-0.00629314
-0.00591707
-0.00545289
-0.00495341
-0.0045244
-0.000134009
-0.00236626
-0.00318354
-0.00280682
-0.00347009
-0.00352187
-0.00421034
-0.00505771
-0.0051387
-0.00547479
-0.00593424
-0.00643389
-0.00658991
-0.00665802
-0.00660732
-0.00637457
-0.00605263
-0.00566325
-0.00523571
-0.004859
-0.000143579
-0.00236595
-0.00317282
-0.00280379
-0.00347114
-0.00353342
-0.0042114
-0.005061
-0.00514035
-0.00546941
-0.00594302
-0.00643643
-0.00661115
-0.0066804
-0.00666232
-0.00646813
-0.0061995
-0.00588485
-0.00552635
-0.00519224
-0.000153576
-0.00236464
-0.00316263
-0.00279956
-0.00347294
-0.00354438
-0.00421358
-0.00506318
-0.0051442
-0.00546345
-0.00595177
-0.00644019
-0.00663296
-0.00670737
-0.00672274
-0.00657451
-0.00635975
-0.00611775
-0.00582513
-0.00552602
-0.000164178
-0.00236197
-0.00315302
-0.00279396
-0.00347553
-0.00355477
-0.00421691
-0.00506433
-0.00514762
-0.00545771
-0.00595999
-0.0064454
-0.00665573
-0.00673817
-0.00678864
-0.00669416
-0.00653555
-0.00636297
-0.00613272
-0.00586299
-0.000175567
-0.00235756
-0.00314459
-0.00278683
-0.00347899
-0.00356465
-0.00422113
-0.00506512
-0.00515004
-0.00545292
-0.00596729
-0.00645201
-0.00668002
-0.00677297
-0.00685936
-0.00682625
-0.00672832
-0.00662258
-0.0064536
-0.0062073
-0.000187944
-0.00235094
-0.00313727
-0.00277807
-0.00348334
-0.00357209
-0.00422637
-0.00506669
-0.00515071
-0.00544942
-0.00597355
-0.00645934
-0.00670644
-0.00681253
-0.00693342
-0.0069656
-0.00693209
-0.00689827
-0.00680238
-0.00656735
-0.000201651
-0.00234153
-0.00313122
-0.00276768
-0.00348845
-0.00358106
-0.00423046
-0.00507007
-0.00514946
-0.00544701
-0.00597953
-0.00646618
-0.00673475
-0.00685726
-0.0070119
-0.00710997
-0.00714482
-0.00717886
-0.00715366
-0.00697477
-0.000217011
-0.00232884
-0.00312639
-0.00275574
-0.0034939
-0.00359129
-0.00423236
-0.00507579
-0.0051463
-0.00544468
-0.00598679
-0.00647219
-0.00676413
-0.00690438
-0.00709666
-0.00727046
-0.00737526
-0.00746966
-0.00751161
-0.00738547
-0.000234343
-0.00231237
-0.0031226
-0.00274257
-0.00349892
-0.00360413
-0.00423118
-0.00508376
-0.00514197
-0.00544127
-0.00599653
-0.00647838
-0.00679698
-0.0069695
-0.00719451
-0.00743968
-0.00761918
-0.00777295
-0.00787457
-0.00779058
-0.000254074
-0.00229152
-0.00311963
-0.00272879
-0.00350246
-0.00362053
-0.0042269
-0.00509352
-0.00513843
-0.00543612
-0.00601012
-0.00649034
-0.00683743
-0.00704732
-0.00730014
-0.00761053
-0.00787166
-0.00808868
-0.0082409
-0.00818975
-0.000276543
-0.00226581
-0.00311691
-0.0027153
-0.00350341
-0.003641
-0.00421947
-0.00510434
-0.00513758
-0.00542924
-0.0060305
-0.00651104
-0.00688084
-0.00713336
-0.00741449
-0.00778117
-0.00812836
-0.00841524
-0.00861222
-0.00858226
-0.000302038
-0.00223508
-0.00311346
-0.00270284
-0.00350109
-0.00366584
-0.00420975
-0.00511583
-0.00514136
-0.00542264
-0.00605883
-0.00653897
-0.00692292
-0.00722653
-0.00754107
-0.00795314
-0.00838484
-0.00874865
-0.00898797
-0.00896903
-0.000330788
-0.00219918
-0.00310807
-0.00269211
-0.00349505
-0.00369493
-0.00419898
-0.00512817
-0.00515361
-0.00541777
-0.0060911
-0.00657264
-0.00696301
-0.00732476
-0.00768136
-0.00812952
-0.00863708
-0.00908287
-0.00936639
-0.00935204
-0.000362817
-0.00215806
-0.0030993
-0.00268367
-0.00348512
-0.00372796
-0.00418514
-0.0051427
-0.00517741
-0.00541282
-0.00612206
-0.00661313
-0.00700279
-0.0074233
-0.00783426
-0.00831451
-0.00888379
-0.00941181
-0.00974531
-0.00973357
-0.000397981
-0.00211028
-0.00308584
-0.00267739
-0.00347179
-0.00376539
-0.00418233
-0.00516031
-0.0052128
-0.0054063
-0.00614838
-0.00666272
-0.00704516
-0.00751768
-0.00799628
-0.00851187
-0.00912751
-0.00973143
-0.0101213
-0.0101147
-0.000436061
-0.00206296
-0.00306674
-0.00267255
-0.0034559
-0.0038084
-0.00418762
-0.0051795
-0.00525805
-0.00539925
-0.00616852
-0.00672143
-0.00709336
-0.00760612
-0.00816276
-0.00872306
-0.00937317
-0.0100403
-0.0104898
-0.010494
-0.000476824
-0.00201417
-0.00304135
-0.0026684
-0.00343845
-0.00385815
-0.00420176
-0.00519684
-0.00530816
-0.00539467
-0.00618086
-0.00678768
-0.0071513
-0.00768943
-0.00832875
-0.00894669
-0.00962519
-0.0103393
-0.0108459
-0.0108679
-0.000519951
-0.00196466
-0.00300984
-0.00266472
-0.00342018
-0.00391428
-0.00422493
-0.00521062
-0.00536385
-0.00539584
-0.00618449
-0.00685816
-0.0072223
-0.00777013
-0.00848937
-0.00917889
-0.00988632
-0.0106313
-0.0111864
-0.0112317
-0.000564684
-0.00191527
-0.00297342
-0.0026619
-0.00340128
-0.00397526
-0.00425764
-0.00522013
-0.00542428
-0.00540634
-0.00617982
-0.00692902
-0.00730864
-0.00785235
-0.00864068
-0.00941366
-0.0101569
-0.0109196
-0.0115103
-0.0115809
-0.000610025
-0.00186685
-0.00293373
-0.00266056
-0.0033812
-0.00403907
-0.00430078
-0.00522584
-0.00548967
-0.00542854
-0.00616848
-0.00699602
-0.0074107
-0.00794171
-0.00878117
-0.00964393
-0.0104342
-0.0112075
-0.0118189
-0.0119121
-0.000655204
-0.00182001
-0.00289246
-0.00266176
-0.00335974
-0.0041032
-0.00435496
-0.00522885
-0.00555525
-0.00546389
-0.00615399
-0.0070547
-0.00752572
-0.0080433
-0.00891244
-0.00986342
-0.0107132
-0.0114965
-0.0121151
-0.0122239
-0.000699615
-0.00177486
-0.00285102
-0.0026673
-0.00333775
-0.00416521
-0.00441984
-0.00523006
-0.00561559
-0.00551307
-0.00614128
-0.00710142
-0.00764805
-0.00816018
-0.00903918
-0.0100684
-0.0109873
-0.0117862
-0.0124019
-0.0125167
-0.000742794
-0.00173096
-0.00281025
-0.00267976
-0.00331658
-0.00422278
-0.00449405
-0.00523072
-0.00566698
-0.00557529
-0.00613503
-0.00713494
-0.00777067
-0.00829235
-0.00916722
-0.010258
-0.0112507
-0.0120742
-0.0126821
-0.0127923
-0.000784248
-0.00168767
-0.0027709
-0.00270259
-0.00329864
-0.00427317
-0.00457525
-0.00523262
-0.00570912
-0.00564814
-0.00613965
-0.00715684
-0.00788706
-0.00843667
-0.00930116
-0.0104338
-0.0114989
-0.0123565
-0.0129564
-0.0130528
-0.000823323
-0.00164413
-0.0027339
-0.00273952
-0.00328969
-0.00431375
-0.00466046
-0.00523778
-0.00574007
-0.00572779
-0.00615881
-0.00717065
-0.00799197
-0.00858797
-0.00944301
-0.010599
-0.011729
-0.0126281
-0.0132237
-0.0132999
-0.000859228
-0.0015999
-0.00270049
-0.00279401
-0.00329088
-0.0043433
-0.0047468
-0.00524853
-0.00575909
-0.0058089
-0.00619416
-0.00718132
-0.00808219
-0.00873987
-0.00959215
-0.010757
-0.0119401
-0.0128845
-0.0134817
-0.0135345
-0.000892284
-0.00155659
-0.00267075
-0.00286201
-0.00330354
-0.00436273
-0.00483284
-0.00526841
-0.00576804
-0.00588544
-0.00624438
-0.00719418
-0.00815715
-0.00888578
-0.00974569
-0.0109103
-0.0121329
-0.0131224
-0.0137273
-0.0137569
-0.00092672
-0.00151973
-0.00263946
-0.00293244
-0.00332764
-0.0043745
-0.00491757
-0.00530105
-0.00577065
-0.00595226
-0.00630549
-0.00721365
-0.00821891
-0.00902023
-0.00989893
-0.0110597
-0.012309
-0.01334
-0.0139579
-0.0139664
-0.000963356
-0.00149263
-0.00260484
-0.00300397
-0.00336349
-0.00438046
-0.00499813
-0.00534777
-0.00577144
-0.00600543
-0.00637175
-0.00724198
-0.00827095
-0.00913927
-0.0100459
-0.0112038
-0.0124699
-0.0135366
-0.0141711
-0.0141622
-0.000998542
-0.00146923
-0.00257833
-0.00308102
-0.00341311
-0.00438293
-0.00507168
-0.00540764
-0.005775
-0.00604296
-0.0064356
-0.00727809
-0.0083168
-0.00924112
-0.0101805
-0.0113388
-0.0126154
-0.0137123
-0.0143652
-0.0143431
-0.00103499
-0.00145507
-0.0025525
-0.00315912
-0.0034769
-0.00438419
-0.00513478
-0.00547787
-0.00578601
-0.00606678
-0.0064907
-0.00731825
-0.00835926
-0.00932701
-0.0102986
-0.0114604
-0.0127442
-0.0138664
-0.0145393
-0.0145085
-0.00107805
-0.00145173
-0.00252559
-0.0032342
-0.0035551
-0.00438821
-0.00518598
-0.00555527
-0.00580878
-0.00608068
-0.0065317
-0.00735593
-0.00839795
-0.00939864
-0.010398
-0.0115642
-0.0128525
-0.0139968
-0.0146914
-0.0146576
-0.00112686
-0.00145865
-0.00249921
-0.00330674
-0.0036483
-0.00439936
-0.00522355
-0.00563428
-0.00584535
-0.0060895
-0.00655518
-0.00738365
-0.00842988
-0.00945713
-0.0104791
-0.0116472
-0.012936
-0.0140994
-0.0148178
-0.0147879
-0.00117874
-0.00147717
-0.00248155
-0.00337638
-0.00375467
-0.00442074
-0.00524646
-0.0057078
-0.00589524
-0.00609904
-0.0065607
-0.00739446
-0.00844958
-0.00950118
-0.010542
-0.0117075
-0.0129912
-0.0141689
-0.0149127
-0.0148952
-0.00123436
-0.00150859
-0.00247466
-0.0034425
-0.00387203
-0.00445647
-0.00525796
-0.00576987
-0.00595461
-0.00611408
-0.00655056
-0.00738228
-0.00844932
-0.00952612
-0.0105844
-0.0117435
-0.0130158
-0.0142004
-0.0149702
-0.0149731
-0.0012969
-0.00155473
-0.00247806
-0.00350447
-0.00399788
-0.0045101
-0.00526309
-0.00581578
-0.00601668
-0.00613704
-0.00653021
-0.00734431
-0.00842143
-0.00952493
-0.0106016
-0.0117534
-0.0130086
-0.0141919
-0.0149845
-0.0150134
-0.00136797
-0.00161507
-0.00249514
-0.00356305
-0.00412884
-0.00458356
-0.00526764
-0.00584322
-0.00607329
-0.00616651
-0.00650457
-0.00728118
-0.0083594
-0.00948897
-0.0105862
-0.0117327
-0.0129673
-0.0141418
-0.0149508
-0.0150088
-0.00144936
-0.00168938
-0.00252842
-0.00362081
-0.00426183
-0.00467651
-0.00527772
-0.00585328
-0.00611707
-0.0061974
-0.00647637
-0.00719594
-0.00825864
-0.00940903
-0.0105292
-0.011674
-0.0128873
-0.0140482
-0.0148677
-0.0149549
-0.00154235
-0.00178341
-0.002579
-0.00368048
-0.00439393
-0.00478716
-0.00529933
-0.00585021
-0.00614312
-0.00622276
-0.00644485
-0.00709164
-0.0081167
-0.00927596
-0.0104192
-0.0115671
-0.0127618
-0.0139059
-0.0147305
-0.0148455
-0.00164761
-0.00189069
-0.0026554
-0.00374579
-0.00452329
-0.0049133
-0.0053371
-0.00583889
-0.00614805
-0.00623447
-0.00640582
-0.00696856
-0.00793315
-0.0090834
-0.0102449
-0.0114003
-0.0125803
-0.0137069
-0.0145335
-0.0146761
-0.0017689
-0.0020181
-0.00275395
-0.00382027
-0.00464984
-0.00505212
-0.00539404
-0.005825
-0.00613149
-0.00622579
-0.00635341
-0.0068251
-0.00770745
-0.00882558
-0.00999357
-0.0111569
-0.0123271
-0.0134389
-0.0142665
-0.0144321
-0.00191081
-0.0021651
-0.00287605
-0.0039087
-0.00477497
-0.00520037
-0.00547209
-0.00581539
-0.00609589
-0.00619212
-0.00628054
-0.00665739
-0.00743681
-0.00849502
-0.00964999
-0.0108156
-0.01198
-0.0130796
-0.0139031
-0.0140934
-0.00207553
-0.00233361
-0.00302184
-0.00401746
-0.00490145
-0.00535463
-0.00557175
-0.00581872
-0.00604745
-0.00613201
-0.00618115
-0.00645967
-0.00711654
-0.00808331
-0.00919529
-0.010349
-0.0115064
-0.0125916
-0.0134185
-0.0136427
-0.00226349
-0.00252036
-0.00319728
-0.00415099
-0.00503313
-0.0055125
-0.00569206
-0.00584398
-0.00599892
-0.00605085
-0.00605259
-0.00622601
-0.00674059
-0.00757835
-0.00860573
-0.00971594
-0.0108519
-0.011934
-0.0127783
-0.0130519
-0.00247893
-0.00272978
-0.00339963
-0.00430974
-0.00517387
-0.00567436
-0.00582946
-0.00589541
-0.00596667
-0.00596525
-0.00590077
-0.00595388
-0.0062986
-0.00696281
-0.00785391
-0.00887554
-0.00996879
-0.0110468
-0.0119264
-0.0122788
-0.00274381
-0.00296681
-0.00361657
-0.00447966
-0.00532702
-0.00584104
-0.00598007
-0.00597126
-0.00595861
-0.00589791
-0.0057487
-0.00564989
-0.00577819
-0.00620468
-0.00689328
-0.00775971
-0.00876119
-0.00982243
-0.0107651
-0.0112551
-0.00306275
-0.00330464
-0.00383878
-0.00465864
-0.00549734
-0.00600903
-0.00613548
-0.00606891
-0.00597764
-0.00586114
-0.00564933
-0.00536613
-0.00519861
-0.00527113
-0.00561576
-0.00621777
-0.00703109
-0.00803107
-0.00908108
-0.00982997
-0.00337476
-0.00358605
-0.00417319
-0.00494393
-0.00569867
-0.00617564
-0.00628754
-0.00618539
-0.0060257
-0.00585465
-0.00563797
-0.00527225
-0.0047509
-0.00420785
-0.0038521
-0.00384106
-0.00422795
-0.00494831
-0.00588289
-0.00682975
-0.00372734
-0.00393687
-0.00454553
-0.00527519
-0.00592791
-0.00633828
-0.00643037
-0.00632122
-0.00611961
-0.0058512
-0.005581
-0.00542295
-0.00499921
-0.00394706
-0.0027803
-0.00200486
-0.00165232
-0.00146101
-0.00122268
-0.000989673
-0.00418345
-0.00435732
-0.0049344
-0.00560428
-0.00615726
-0.00648793
-0.00655562
-0.00643592
-0.00626717
-0.00589453
-0.0049123
-0.00369455
-0.00260014
-0.00176024
-0.00109583
-0.000447109
0.000275531
0.00103737
0.00167898
0.00186423
-0.00473122
-0.00484529
-0.00534578
-0.00592663
-0.00636252
-0.00659221
-0.00664041
-0.00634433
-0.00547904
-0.00447503
-0.00356412
-0.00279487
-0.00212518
-0.00140447
-0.000555228
0.000419832
0.00145913
0.00243326
0.00312363
0.0031946
-0.00539078
-0.00544531
-0.00577028
-0.00616381
-0.00650292
-0.00649409
-0.00599733
-0.00530522
-0.00460091
-0.00396279
-0.00337021
-0.00270244
-0.00187714
-0.000888141
0.000224515
0.00140553
0.00257599
0.00360772
0.00427824
0.00424631
-0.0061872
-0.00626974
-0.00620731
-0.00608849
-0.00594197
-0.00571566
-0.00537113
-0.00493349
-0.00443616
-0.00385719
-0.00316683
-0.00232916
-0.00133362
-0.000207837
0.00101031
0.00226964
0.00348364
0.00450769
0.00512328
0.0050049
-0.00692444
-0.00690732
-0.0064733
-0.00597624
-0.00557734
-0.00529111
-0.00502688
-0.00468355
-0.0042069
-0.00357717
-0.00279057
-0.0018575
-0.000790695
0.000393015
0.00165889
0.00294332
0.0041539
0.00514998
0.00571595
0.00552984
-0.00749743
-0.00734463
-0.00675424
-0.00603176
-0.00543062
-0.00501453
-0.00469455
-0.0043427
-0.00385857
-0.00320881
-0.0023946
-0.00142805
-0.00032766
0.000883622
0.00216649
0.00345768
0.00466208
0.00563644
0.00616433
0.0059258
-0.00796363
-0.00772927
-0.0070301
-0.0061464
-0.00536129
-0.00478866
-0.00437312
-0.00398128
-0.00349658
-0.0028562
-0.00204226
-0.00106611
5.20374e-05
0.00128059
0.00257475
0.003869
0.00506626
0.0060215
0.00651801
0.00623795
-0.00836151
-0.00806811
-0.00725874
-0.00624881
-0.0053164
-0.00460811
-0.0040986
-0.0036634
-0.00317321
-0.00254159
-0.00173459
-0.000755192
0.000372449
0.00161119
0.00291139
0.00420461
0.00539247
0.00632963
0.00680006
0.00648767
-0.0086802
-0.00833391
-0.00745166
-0.00634018
-0.00529417
-0.00447858
-0.00388763
-0.0034064
-0.00289996
-0.00227146
-0.00147294
-0.00049792
0.0006321
0.00187529
0.00317722
0.00446701
0.00564537
0.00656722
0.00701757
0.00668172
-0.008918
-0.00854039
-0.00760252
-0.00642158
-0.00529905
-0.00440707
-0.0037495
-0.00322051
-0.00268546
-0.00204163
-0.00123702
-0.000261822
0.000864524
0.00210352
0.00340086
0.00468331
0.00585106
0.00675967
0.00719485
0.00684229
-0.00906519
-0.00867742
-0.00771548
-0.00650086
-0.0053392
-0.00440645
-0.00370811
-0.00314285
-0.00258
-0.00191577
-0.00109148
-9.69921e-05
0.00104469
0.00229063
0.00358536
0.00485865
0.00601489
0.00691332
0.00734116
0.00698367
0.00592185
0.00118825
-0.00595206
-0.011052
-0.0120941
-0.0107862
-0.00924139
-0.00818454
-0.00759209
-0.00729638
-0.0071749
-0.00715713
-0.00720113
-0.00728176
-0.00738353
-0.00749365
-0.00760014
-0.0076955
-0.00777823
-0.0078503
-0.00791512
-0.00797655
-0.00803715
-0.00809766
-0.00815833
-0.00822007
-0.00828387
-0.00835059
-0.00842061
-0.00849341
-0.00856781
-0.00864306
-0.00871878
-0.00879458
-0.00886986
-0.00894404
-0.00901671
-0.00908755
-0.00915633
-0.00922324
-0.0092887
-0.00935316
-0.00941624
-0.00947741
-0.00953678
-0.00959485
-0.00965211
-0.00970864
-0.00976396
-0.00981779
-0.00987031
-0.00992185
-0.00997262
-0.0100224
-0.0100711
-0.0101187
-0.0101656
-0.010212
-0.0102579
-0.010303
-0.0103472
-0.0103905
-0.0104334
-0.010476
-0.0105181
-0.0105594
-0.0105998
-0.0106395
-0.0106788
-0.0107177
-0.0107561
-0.0107938
-0.010831
-0.0108677
-0.0109038
-0.0109395
-0.0109746
-0.0110095
-0.0110441
-0.0110784
-0.0111123
-0.011146
-0.0111795
-0.0112131
-0.0112467
-0.0112802
-0.0113136
-0.0113468
-0.01138
-0.0114131
-0.0114461
-0.0114787
-0.0115113
-0.0115436
-0.0115757
-0.0116074
-0.011639
-0.0116704
-0.0117018
-0.0117326
-0.0117632
-0.0117935
-0.0118238
-0.0118537
-0.0118834
-0.0119128
-0.0119419
-0.0119708
-0.0119994
-0.012028
-0.0120562
-0.0120844
-0.0121123
-0.0121403
-0.012168
-0.0121958
-0.0122234
-0.012251
-0.0122783
-0.0123055
-0.0123326
-0.0123593
-0.012386
-0.0124121
-0.0124384
-0.0124639
-0.0124897
-0.0125149
-0.0125402
-0.012565
-0.0125896
-0.012614
-0.012638
-0.0126622
-0.0126855
-0.012709
-0.0127317
-0.0127547
-0.0127769
-0.0127994
-0.0128213
-0.012843
-0.0128647
-0.0128857
-0.012907
-0.0129271
-0.0129478
-0.0129673
-0.0129875
-0.0130068
-0.0130262
-0.013045
-0.0130637
-0.0130829
-0.0131007
-0.013119
-0.0131359
-0.0131539
-0.0131705
-0.0131873
-0.0132037
-0.0132197
-0.0132363
-0.0132509
-0.0132669
-0.0132805
-0.013296
-0.0133096
-0.0133236
-0.0133374
-0.0133501
-0.0133645
-0.0133756
-0.0133894
-0.0134
-0.0134123
-0.0134231
-0.0134331
-0.0134448
-0.0134531
-0.0134646
-0.0134718
-0.0134814
-0.0134895
-0.0134962
-0.0135055
-0.0135094
-0.0135188
-0.0135213
-0.0135274
-0.013531
-0.0135319
-0.0135364
-0.0135336
-0.0135346
-0.0135327
-0.0135266
-0.0135273
-0.0135186
-0.0135261
0.00519958
0.00100498
-0.00587744
-0.0109141
-0.0120105
-0.0107466
-0.00921653
-0.00816683
-0.00757922
-0.00728656
-0.00716698
-0.00715048
-0.0071954
-0.00727673
-0.00737906
-0.00748965
-0.00759654
-0.00769225
-0.00777527
-0.0078476
-0.00791263
-0.00797425
-0.008035
-0.00809566
-0.00815646
-0.00821831
-0.00828221
-0.00834902
-0.00841913
-0.008492
-0.00856647
-0.00864179
-0.00871757
-0.00879343
-0.00886876
-0.008943
-0.00901571
-0.00908659
-0.00915541
-0.00922236
-0.00928786
-0.00935235
-0.00941546
-0.00947667
-0.00953606
-0.00959416
-0.00965144
-0.009708
-0.00976335
-0.0098172
-0.00986974
-0.0099213
-0.00997209
-0.0100219
-0.0100706
-0.0101182
-0.0101652
-0.0102116
-0.0102575
-0.0103026
-0.0103467
-0.0103901
-0.0104331
-0.0104756
-0.0105177
-0.010559
-0.0105994
-0.0106392
-0.0106785
-0.0107174
-0.0107558
-0.0107936
-0.0108308
-0.0108674
-0.0109035
-0.0109392
-0.0109744
-0.0110093
-0.0110438
-0.0110782
-0.0111121
-0.0111458
-0.0111793
-0.0112129
-0.0112465
-0.01128
-0.0113134
-0.0113466
-0.0113798
-0.011413
-0.0114459
-0.0114786
-0.0115111
-0.0115434
-0.0115755
-0.0116072
-0.0116389
-0.0116702
-0.0117016
-0.0117325
-0.0117631
-0.0117934
-0.0118236
-0.0118536
-0.0118833
-0.0119127
-0.0119418
-0.0119707
-0.0119993
-0.0120279
-0.0120561
-0.0120843
-0.0121122
-0.0121402
-0.0121679
-0.0121957
-0.0122233
-0.0122509
-0.0122783
-0.0123054
-0.0123325
-0.0123592
-0.0123859
-0.0124121
-0.0124383
-0.0124638
-0.0124896
-0.0125149
-0.0125401
-0.0125649
-0.0125895
-0.0126139
-0.012638
-0.0126621
-0.0126854
-0.012709
-0.0127316
-0.0127546
-0.0127769
-0.0127994
-0.0128212
-0.012843
-0.0128646
-0.0128856
-0.0129069
-0.0129271
-0.0129478
-0.0129672
-0.0129875
-0.0130067
-0.0130261
-0.013045
-0.0130637
-0.0130828
-0.0131006
-0.0131189
-0.0131358
-0.0131539
-0.0131704
-0.0131873
-0.0132037
-0.0132197
-0.0132362
-0.0132508
-0.0132668
-0.0132805
-0.013296
-0.0133095
-0.0133235
-0.0133373
-0.01335
-0.0133644
-0.0133756
-0.0133893
-0.0134
-0.0134122
-0.0134231
-0.0134331
-0.0134448
-0.0134531
-0.0134645
-0.0134717
-0.0134814
-0.0134895
-0.0134962
-0.0135055
-0.0135093
-0.0135187
-0.0135212
-0.0135274
-0.0135309
-0.0135319
-0.0135364
-0.0135336
-0.0135345
-0.0135327
-0.0135266
-0.0135273
-0.0135186
-0.013526
0.00443876
0.000817839
-0.00571255
-0.0106547
-0.011859
-0.0106874
-0.00918541
-0.00814284
-0.0075602
-0.0072719
-0.00715561
-0.00714147
-0.00718807
-0.00727061
-0.00737382
-0.00748507
-0.00759249
-0.00768863
-0.00777201
-0.00784465
-0.00790996
-0.0079718
-0.00803275
-0.00809358
-0.00815453
-0.0082165
-0.00828051
-0.00834743
-0.00841763
-0.00849058
-0.00856513
-0.00864052
-0.00871637
-0.00879229
-0.00886767
-0.00894196
-0.00901473
-0.00908565
-0.00915451
-0.0092215
-0.00928704
-0.00935156
-0.0094147
-0.00947593
-0.00953536
-0.00959348
-0.00965079
-0.00970737
-0.00976275
-0.00981662
-0.00986919
-0.00992076
-0.00997158
-0.0100214
-0.0100701
-0.0101178
-0.0101647
-0.0102111
-0.010257
-0.0103022
-0.0103464
-0.0103897
-0.0104327
-0.0104753
-0.0105174
-0.0105587
-0.0105991
-0.0106389
-0.0106782
-0.0107171
-0.0107555
-0.0107933
-0.0108305
-0.0108672
-0.0109033
-0.0109389
-0.0109741
-0.011009
-0.0110436
-0.0110779
-0.0111118
-0.0111456
-0.0111791
-0.0112127
-0.0112463
-0.0112799
-0.0113132
-0.0113465
-0.0113797
-0.0114128
-0.0114458
-0.0114784
-0.011511
-0.0115432
-0.0115754
-0.0116071
-0.0116387
-0.0116701
-0.0117015
-0.0117323
-0.011763
-0.0117932
-0.0118235
-0.0118535
-0.0118832
-0.0119125
-0.0119416
-0.0119706
-0.0119992
-0.0120278
-0.012056
-0.0120842
-0.0121121
-0.0121401
-0.0121678
-0.0121956
-0.0122232
-0.0122508
-0.0122782
-0.0123053
-0.0123324
-0.0123591
-0.0123858
-0.012412
-0.0124382
-0.0124637
-0.0124895
-0.0125148
-0.0125401
-0.0125648
-0.0125894
-0.0126139
-0.0126379
-0.012662
-0.0126854
-0.0127089
-0.0127315
-0.0127546
-0.0127768
-0.0127993
-0.0128212
-0.0128429
-0.0128646
-0.0128856
-0.0129069
-0.012927
-0.0129477
-0.0129671
-0.0129874
-0.0130067
-0.0130261
-0.0130449
-0.0130636
-0.0130828
-0.0131006
-0.0131189
-0.0131358
-0.0131538
-0.0131704
-0.0131872
-0.0132036
-0.0132196
-0.0132362
-0.0132508
-0.0132668
-0.0132805
-0.0132959
-0.0133095
-0.0133235
-0.0133373
-0.01335
-0.0133644
-0.0133756
-0.0133893
-0.0133999
-0.0134122
-0.013423
-0.013433
-0.0134448
-0.0134531
-0.0134645
-0.0134717
-0.0134813
-0.0134894
-0.0134962
-0.0135055
-0.0135093
-0.0135187
-0.0135212
-0.0135273
-0.0135309
-0.0135319
-0.0135363
-0.0135336
-0.0135345
-0.0135327
-0.0135266
-0.0135272
-0.0135186
-0.013526
0.00371835
0.000651141
-0.00548114
-0.0103125
-0.011649
-0.0106037
-0.00914179
-0.00810741
-0.00753097
-0.00724947
-0.00713872
-0.0071285
-0.00717783
-0.00726227
-0.00736682
-0.00747902
-0.00758715
-0.00768387
-0.00776776
-0.00784088
-0.00790662
-0.00796881
-0.00803005
-0.00809111
-0.00815228
-0.00821443
-0.0082786
-0.00834566
-0.00841598
-0.00848903
-0.00856366
-0.00863914
-0.00871508
-0.00879106
-0.0088665
-0.00894085
-0.00901368
-0.00908466
-0.00915356
-0.0092206
-0.00928618
-0.00935073
-0.00941391
-0.00947517
-0.00953463
-0.00959278
-0.00965012
-0.00970672
-0.00976212
-0.00981602
-0.00986861
-0.00992021
-0.00997105
-0.0100209
-0.0100696
-0.0101173
-0.0101643
-0.0102107
-0.0102566
-0.0103017
-0.010346
-0.0103894
-0.0104323
-0.0104749
-0.010517
-0.0105583
-0.0105988
-0.0106385
-0.0106779
-0.0107168
-0.0107552
-0.010793
-0.0108302
-0.0108669
-0.010903
-0.0109387
-0.0109739
-0.0110088
-0.0110434
-0.0110777
-0.0111116
-0.0111454
-0.0111789
-0.0112125
-0.0112461
-0.0112797
-0.011313
-0.0113463
-0.0113795
-0.0114126
-0.0114456
-0.0114782
-0.0115108
-0.0115431
-0.0115752
-0.0116069
-0.0116386
-0.01167
-0.0117013
-0.0117322
-0.0117628
-0.0117931
-0.0118234
-0.0118533
-0.011883
-0.0119124
-0.0119415
-0.0119705
-0.0119991
-0.0120276
-0.0120559
-0.0120841
-0.012112
-0.01214
-0.0121677
-0.0121955
-0.0122231
-0.0122507
-0.0122781
-0.0123052
-0.0123323
-0.012359
-0.0123858
-0.0124119
-0.0124381
-0.0124636
-0.0124894
-0.0125147
-0.01254
-0.0125647
-0.0125893
-0.0126138
-0.0126378
-0.0126619
-0.0126853
-0.0127088
-0.0127315
-0.0127545
-0.0127768
-0.0127993
-0.0128211
-0.0128429
-0.0128645
-0.0128855
-0.0129068
-0.012927
-0.0129477
-0.0129671
-0.0129873
-0.0130066
-0.013026
-0.0130449
-0.0130636
-0.0130827
-0.0131005
-0.0131188
-0.0131357
-0.0131538
-0.0131703
-0.0131872
-0.0132036
-0.0132196
-0.0132362
-0.0132507
-0.0132667
-0.0132804
-0.0132959
-0.0133095
-0.0133235
-0.0133373
-0.01335
-0.0133644
-0.0133755
-0.0133892
-0.0133999
-0.0134122
-0.013423
-0.013433
-0.0134447
-0.013453
-0.0134645
-0.0134717
-0.0134813
-0.0134894
-0.0134962
-0.0135054
-0.0135093
-0.0135187
-0.0135212
-0.0135273
-0.0135309
-0.0135318
-0.0135363
-0.0135336
-0.0135345
-0.0135327
-0.0135266
-0.0135272
-0.0135186
-0.013526
0.00303065
0.000476635
-0.00523109
-0.00994109
-0.0114135
-0.0105087
-0.00909201
-0.00806363
-0.00749228
-0.0072187
-0.00711518
-0.00711028
-0.00716338
-0.00725053
-0.007357
-0.00747054
-0.00757964
-0.00767713
-0.00776174
-0.00783555
-0.00790194
-0.00796468
-0.00802636
-0.00808779
-0.00814927
-0.00821171
-0.00827613
-0.00834341
-0.0084139
-0.00848709
-0.00856185
-0.00863745
-0.0087135
-0.00878958
-0.0088651
-0.00893952
-0.00901242
-0.00908347
-0.00915244
-0.00921954
-0.00928518
-0.00934978
-0.00941299
-0.00947429
-0.00953379
-0.00959198
-0.00964934
-0.00970598
-0.0097614
-0.00981533
-0.00986795
-0.00991957
-0.00997043
-0.0100203
-0.0100691
-0.0101168
-0.0101637
-0.0102102
-0.0102561
-0.0103013
-0.0103455
-0.0103889
-0.0104319
-0.0104745
-0.0105167
-0.010558
-0.0105984
-0.0106382
-0.0106775
-0.0107165
-0.0107549
-0.0107927
-0.0108299
-0.0108666
-0.0109027
-0.0109384
-0.0109736
-0.0110085
-0.0110431
-0.0110775
-0.0111114
-0.0111451
-0.0111786
-0.0112122
-0.0112458
-0.0112794
-0.0113128
-0.0113461
-0.0113793
-0.0114124
-0.0114454
-0.0114781
-0.0115106
-0.0115429
-0.0115751
-0.0116068
-0.0116384
-0.0116698
-0.0117012
-0.011732
-0.0117627
-0.011793
-0.0118232
-0.0118532
-0.0118829
-0.0119123
-0.0119414
-0.0119704
-0.011999
-0.0120275
-0.0120557
-0.012084
-0.0121119
-0.0121399
-0.0121675
-0.0121954
-0.012223
-0.0122506
-0.012278
-0.0123051
-0.0123322
-0.0123589
-0.0123857
-0.0124118