/*--------------------------------*- C++ -*----------------------------------*\
| =========                 |                                                 |
| \\      /  F ield         | OpenFOAM: The Open Source CFD Toolbox           |
|  \\    /   O peration     | Version:  v2012                                 |
|   \\  /    A nd           | Website:  www.openfoam.com                      |
|    \\/     M anipulation  |                                                 |
\*---------------------------------------------------------------------------*/
FoamFile
{
    version     2.0;
    format      ascii;
    class       surfaceScalarField;
    location    "3.75";
    object      phi;
}
// * * * * * * * * * * * * * * * * * * * * * * * * * * * * * * * * * * * * * //

dimensions      [0 3 -1 0 0 0 0];
oriented        oriented;


internalField   nonuniform List<scalar> 
34900
(
1.1803e-06
5.40447e-07
1.15059e-06
-2.99174e-07
1.15932e-06
-1.08423e-07
1.15033e-06
1.47758e-07
1.1564e-06
-5.24794e-08
1.14652e-06
5.64531e-09
1.15486e-06
2.85319e-08
1.14524e-06
-1.05458e-08
1.15281e-06
1.7792e-08
1.14319e-06
-5.1693e-08
1.15134e-06
7.4133e-09
1.14201e-06
-5.02433e-08
1.15066e-06
1.36023e-08
1.14107e-06
-3.09539e-08
1.15001e-06
3.01825e-08
1.13958e-06
-1.71779e-09
1.14831e-06
5.74785e-08
1.13627e-06
1.30559e-08
1.14002e-06
8.30782e-08
2.48713e-08
1.10472e-06
1.2319e-06
5.32808e-07
1.20398e-06
-2.71256e-07
1.21121e-06
-1.15654e-07
1.20613e-06
1.52846e-07
1.21041e-06
-5.67631e-08
1.20304e-06
1.30096e-08
1.20871e-06
2.28696e-08
1.20292e-06
-4.76234e-09
1.20636e-06
1.43533e-08
1.20167e-06
-4.70017e-08
1.2043e-06
4.78483e-09
1.20191e-06
-4.7855e-08
1.20244e-06
1.30762e-08
1.20321e-06
-3.17273e-08
1.19979e-06
3.36043e-08
1.2051e-06
-7.03205e-09
1.19477e-06
6.781e-08
1.20541e-06
2.4138e-09
1.18205e-06
1.06438e-07
1.90749e-08
1.18785e-06
1.28544e-06
5.30152e-07
1.26189e-06
-2.47707e-07
1.26377e-06
-1.17534e-07
1.26522e-06
1.51398e-07
1.26545e-06
-5.69913e-08
1.26381e-06
1.46461e-08
1.26389e-06
2.27866e-08
1.26486e-06
-5.72452e-09
1.26219e-06
1.70136e-08
1.26451e-06
-4.93157e-08
1.26038e-06
8.91787e-09
1.26508e-06
-5.25574e-08
1.25885e-06
1.93023e-08
1.26584e-06
-3.87136e-08
1.25748e-06
4.19611e-08
1.26566e-06
-1.52095e-08
1.25614e-06
7.73315e-08
1.26171e-06
-3.16041e-09
1.25138e-06
1.16773e-07
3.09757e-08
1.23948e-06
1.34217e-06
5.32087e-07
1.32594e-06
-2.31482e-07
1.31978e-06
-1.11376e-07
1.32727e-06
1.43912e-07
1.32356e-06
-5.32789e-08
1.32678e-06
1.14239e-08
1.32248e-06
2.70866e-08
1.32825e-06
-1.14897e-08
1.32237e-06
2.28849e-08
1.32809e-06
-5.50346e-08
1.32202e-06
1.49914e-08
1.32793e-06
-5.84638e-08
1.322e-06
2.52295e-08
1.32742e-06
-4.41365e-08
1.32238e-06
4.69999e-08
1.32619e-06
-1.90167e-08
1.32288e-06
8.0646e-08
1.32215e-06
-2.43374e-09
1.31907e-06
1.19852e-07
4.67332e-08
1.30331e-06
1.40329e-06
5.37148e-07
1.39524e-06
-2.23424e-07
1.38147e-06
-9.76144e-08
1.39229e-06
1.33099e-07
1.38671e-06
-4.76987e-08
1.3919e-06
6.22635e-09
1.38639e-06
3.25972e-08
1.39331e-06
-1.84112e-08
1.38816e-06
2.80397e-08
1.39347e-06
-6.03478e-08
1.38929e-06
1.91714e-08
1.39316e-06
-6.23324e-08
1.39004e-06
2.83494e-08
1.39253e-06
-4.66268e-08
1.39057e-06
4.89609e-08
1.39156e-06
-2.00098e-08
1.39079e-06
8.14237e-08
1.38778e-06
5.76815e-10
1.38658e-06
1.21043e-07
6.24837e-08
1.37083e-06
1.46962e-06
5.43205e-07
1.46824e-06
-2.22046e-07
1.45003e-06
-7.94038e-08
1.46093e-06
1.22202e-07
1.45591e-06
-4.26833e-08
1.46058e-06
1.56287e-09
1.4564e-06
3.6772e-08
1.46215e-06
-2.41585e-08
1.45939e-06
3.08028e-08
1.46304e-06
-6.40009e-08
1.46115e-06
2.10565e-08
1.46308e-06
-6.4258e-08
1.46171e-06
2.97135e-08
1.46251e-06
-4.74251e-08
1.46169e-06
4.97831e-08
1.46141e-06
-1.97274e-08
1.46146e-06
8.13727e-08
1.45702e-06
5.01317e-09
1.45708e-06
1.20983e-07
7.83062e-08
1.44126e-06
1.54126e-06
5.48158e-07
1.54386e-06
-2.2464e-07
1.52517e-06
-6.07163e-08
1.53405e-06
1.13327e-07
1.53077e-06
-3.94113e-08
1.53403e-06
-1.68924e-09
1.53183e-06
3.89641e-08
1.536e-06
-2.83288e-08
1.53513e-06
3.16784e-08
1.53752e-06
-6.63888e-08
1.53687e-06
2.17012e-08
1.53772e-06
-6.51059e-08
1.53696e-06
3.04699e-08
1.53684e-06
-4.73037e-08
1.53641e-06
5.02115e-08
1.53512e-06
-1.84359e-08
1.5358e-06
8.06949e-08
1.52989e-06
1.09248e-08
1.53101e-06
1.19858e-07
9.39318e-08
1.51539e-06
1.61764e-06
5.50649e-07
1.62163e-06
-2.28634e-07
1.60537e-06
-4.44576e-08
1.6118e-06
1.06903e-07
1.61001e-06
-3.76262e-08
1.61223e-06
-3.90768e-09
1.61143e-06
3.97635e-08
1.61452e-06
-3.14206e-08
1.61449e-06
3.17135e-08
1.61618e-06
-6.80844e-08
1.61598e-06
2.19023e-08
1.61622e-06
-6.53479e-08
1.61567e-06
3.10197e-08
1.61483e-06
-4.64567e-08
1.61474e-06
5.03042e-08
1.61238e-06
-1.60829e-08
1.61371e-06
7.93637e-08
1.60639e-06
1.82512e-08
1.60824e-06
1.18008e-07
1.08863e-07
1.59331e-06
1.69789e-06
5.50329e-07
1.70161e-06
-2.32348e-07
1.68892e-06
-3.17666e-08
1.69356e-06
1.02259e-07
1.69244e-06
-3.65091e-08
1.69429e-06
-5.75853e-09
1.69414e-06
3.9917e-08
1.69665e-06
-3.39332e-08
1.6968e-06
3.15668e-08
1.69808e-06
-6.93647e-08
1.69804e-06
2.19402e-08
1.69783e-06
-6.51341e-08
1.6975e-06
3.13523e-08
1.69595e-06
-4.49111e-08
1.69632e-06
4.99317e-08
1.69288e-06
-1.2643e-08
1.69488e-06
7.73633e-08
1.68635e-06
2.67885e-08
1.68855e-06
1.15807e-07
1.22607e-07
1.6748e-06
1.78147e-06
5.47583e-07
1.78414e-06
-2.35016e-07
1.77481e-06
-2.2442e-08
1.77857e-06
9.85007e-08
1.77751e-06
-3.54524e-08
1.77939e-06
-7.63395e-09
1.77944e-06
3.98632e-08
1.78163e-06
-3.61244e-08
1.78174e-06
3.14569e-08
1.78269e-06
-7.03105e-08
1.78281e-06
2.18159e-08
1.78218e-06
-6.45039e-08
1.78222e-06
3.13175e-08
1.77998e-06
-4.26733e-08
1.78098e-06
4.89286e-08
1.7765e-06
-8.1597e-09
1.77913e-06
7.47356e-08
1.76971e-06
3.62047e-08
1.77185e-06
1.13664e-07
1.34715e-07
1.75975e-06
1.8683e-06
5.43036e-07
1.86972e-06
-2.36441e-07
1.863e-06
-1.57252e-08
1.86648e-06
9.50216e-08
1.86528e-06
-3.42518e-08
1.86727e-06
-9.61993e-09
1.86737e-06
3.97632e-08
1.86933e-06
-3.80858e-08
1.86941e-06
3.13731e-08
1.87003e-06
-7.09292e-08
1.87042e-06
2.14324e-08
1.86937e-06
-6.34572e-08
1.86995e-06
3.07393e-08
1.86703e-06
-3.97527e-08
1.86879e-06
4.71623e-08
1.86339e-06
-2.75625e-09
1.86651e-06
7.16185e-08
1.85665e-06
4.60597e-08
1.85831e-06
1.12006e-07
1.44833e-07
1.84819e-06
1.95866e-06
5.37211e-07
1.95889e-06
-2.36672e-07
1.95403e-06
-1.08595e-08
1.95748e-06
9.15704e-08
1.95618e-06
-3.29539e-08
1.95822e-06
-1.16559e-08
1.95835e-06
3.96361e-08
1.96009e-06
-3.98306e-08
1.96024e-06
3.12246e-08
1.9605e-06
-7.11922e-08
1.96126e-06
2.06724e-08
1.95976e-06
-6.19591e-08
1.96103e-06
2.94693e-08
1.95744e-06
-3.61635e-08
1.96002e-06
4.45847e-08
1.95391e-06
3.35993e-09
1.95727e-06
6.82573e-08
1.94747e-06
5.58591e-08
1.94828e-06
1.11198e-07
1.52778e-07
1.94033e-06
2.05297e-06
5.30435e-07
2.05211e-06
-2.3582e-07
2.04856e-06
-7.30612e-09
2.05201e-06
8.81235e-08
2.05074e-06
-3.16846e-08
2.05273e-06
-1.3649e-08
2.05293e-06
3.94375e-08
2.05443e-06
-4.13343e-08
2.05476e-06
3.0898e-08
2.05461e-06
-7.10386e-08
2.05585e-06
1.94249e-08
2.05384e-06
-5.99452e-08
2.0559e-06
2.74132e-08
2.05167e-06
-3.19355e-08
2.055e-06
4.12564e-08
2.04844e-06
9.91681e-09
2.05172e-06
6.49809e-08
2.04245e-06
6.51263e-08
2.04217e-06
1.11481e-07
1.58573e-07
2.03637e-06
2.15156e-06
5.22876e-07
2.14974e-06
-2.33995e-07
2.14718e-06
-4.74815e-09
2.15054e-06
8.4758e-08
2.14943e-06
-3.05736e-08
2.15129e-06
-1.55093e-08
2.15164e-06
3.90893e-08
2.15285e-06
-4.25487e-08
2.15348e-06
3.02697e-08
2.15283e-06
-7.03852e-08
2.15466e-06
1.75929e-08
2.15206e-06
-5.73437e-08
2.15493e-06
2.45461e-08
2.15013e-06
-2.71367e-08
2.15403e-06
3.73574e-08
2.14735e-06
1.65949e-08
2.15017e-06
6.21627e-08
2.14183e-06
7.34675e-08
2.14037e-06
1.12942e-07
1.62439e-07
2.1365e-06
2.25474e-06
5.14621e-07
2.25203e-06
-2.31284e-07
2.25031e-06
-3.02502e-09
2.25348e-06
8.15842e-08
2.25265e-06
-2.97424e-08
2.25429e-06
-1.71464e-08
2.25489e-06
3.84912e-08
2.25574e-06
-4.34065e-08
2.2568e-06
2.92095e-08
2.25556e-06
-6.91439e-08
2.25806e-06
1.50999e-08
2.25482e-06
-5.41082e-08
2.25845e-06
2.09196e-08
2.25321e-06
-2.18999e-08
2.2574e-06
3.31658e-08
2.25093e-06
2.30643e-08
2.25294e-06
6.01594e-08
2.24579e-06
8.06157e-08
2.24322e-06
1.15514e-07
1.64753e-07
2.2409e-06
2.36278e-06
5.05717e-07
2.35923e-06
-2.27739e-07
2.35828e-06
-2.07477e-09
2.36115e-06
7.87206e-08
2.36072e-06
-2.93114e-08
2.36203e-06
-1.84628e-08
2.363e-06
3.75294e-08
2.36342e-06
-4.38267e-08
2.36504e-06
2.75897e-08
2.36313e-06
-6.72403e-08
2.36633e-06
1.19013e-08
2.36247e-06
-5.02503e-08
2.36673e-06
1.66666e-08
2.36126e-06
-1.64375e-08
2.36541e-06
2.90217e-08
2.35945e-06
2.90228e-08
2.36036e-06
5.92434e-08
2.35451e-06
8.64703e-08
2.35104e-06
1.18983e-07
1.65977e-07
2.34982e-06
2.47593e-06
4.96186e-07
2.47156e-06
-2.23375e-07
2.47139e-06
-1.90021e-09
2.47382e-06
7.62877e-08
2.47391e-06
-2.9404e-08
2.4748e-06
-1.93528e-08
2.47625e-06
3.60862e-08
2.47614e-06
-4.37244e-08
2.47843e-06
2.53013e-08
2.47583e-06
-6.46328e-08
2.47972e-06
8.00306e-09
2.47534e-06
-4.58645e-08
2.48e-06
1.20005e-08
2.4746e-06
-1.10315e-08
2.47834e-06
2.52773e-08
2.47313e-06
3.42321e-08
2.47283e-06
5.95507e-08
2.46818e-06
9.11157e-08
2.46416e-06
1.23004e-07
1.66593e-07
2.46354e-06
2.59445e-06
4.86033e-07
2.58924e-06
-2.18174e-07
2.5899e-06
-2.55044e-09
2.59178e-06
7.44056e-08
2.59252e-06
-3.01445e-08
2.59287e-06
-1.9708e-08
2.59491e-06
3.40485e-08
2.59421e-06
-4.30233e-08
2.59724e-06
2.22715e-08
2.59394e-06
-6.13312e-08
2.59846e-06
3.48265e-09
2.59373e-06
-4.11371e-08
2.59854e-06
7.19319e-09
2.59349e-06
-5.98709e-09
2.59653e-06
2.22391e-08
2.59222e-06
3.85485e-08
2.59072e-06
6.1047e-08
2.58703e-06
9.48036e-08
2.58287e-06
1.27162e-07
1.67019e-07
2.58245e-06
2.71861e-06
4.75251e-07
2.71252e-06
-2.12085e-07
2.71408e-06
-4.10844e-09
2.71529e-06
7.31928e-08
2.7168e-06
-3.16548e-08
2.71652e-06
-1.94258e-08
2.71925e-06
3.13198e-08
2.7179e-06
-4.16737e-08
2.72169e-06
1.84844e-08
2.71777e-06
-5.74171e-08
2.72275e-06
-1.49758e-09
2.71796e-06
-3.6339e-08
2.7226e-06
2.54695e-09
2.7182e-06
-1.58855e-09
2.72032e-06
2.01224e-08
2.71691e-06
4.19563e-08
2.71441e-06
6.35477e-08
2.71135e-06
9.78672e-08
2.70743e-06
1.31078e-07
1.67547e-07
2.7069e-06
2.8487e-06
4.63821e-07
2.84165e-06
-2.0504e-07
2.84423e-06
-6.68047e-09
2.84466e-06
7.27631e-08
2.84705e-06
-3.40471e-08
2.84604e-06
-1.84224e-08
2.84953e-06
2.78379e-08
2.84753e-06
-3.96749e-08
2.85201e-06
1.39998e-08
2.84765e-06
-5.30586e-08
2.85285e-06
-6.69215e-09
2.8483e-06
-3.17911e-08
2.8525e-06
-1.65389e-09
2.84896e-06
1.95474e-09
2.85007e-06
1.90074e-08
2.84745e-06
4.45837e-08
2.84421e-06
6.67798e-08
2.84146e-06
1.00616e-07
2.83806e-06
1.34484e-07
1.68297e-07
2.83731e-06
2.98499e-06
4.51723e-07
2.97691e-06
-1.96956e-07
2.98062e-06
-1.03869e-08
2.98016e-06
7.32207e-08
2.98353e-06
-3.74158e-08
2.98175e-06
-1.66464e-08
2.986e-06
2.35924e-08
2.98342e-06
-3.70978e-08
2.98845e-06
8.97072e-09
2.98391e-06
-4.85147e-08
2.98901e-06
-1.17964e-08
2.98504e-06
-2.78207e-08
2.98857e-06
-5.18685e-09
2.98598e-06
4.55017e-09
2.98617e-06
1.88137e-08
2.98407e-06
4.66816e-08
2.98039e-06
7.04597e-08
2.97772e-06
1.03284e-07
2.97495e-06
1.3726e-07
1.69232e-07
2.97401e-06
3.1278e-06
4.38934e-07
3.11858e-06
-1.87743e-07
3.12355e-06
-1.53532e-08
3.12212e-06
7.46519e-08
3.12653e-06
-4.18247e-08
3.12398e-06
-1.40971e-08
3.12892e-06
1.86467e-08
3.12593e-06
-3.41054e-08
3.13125e-06
3.64932e-09
3.12686e-06
-4.41201e-08
3.13154e-06
-1.64788e-08
3.12843e-06
-2.47114e-08
3.13118e-06
-7.94116e-09
3.1295e-06
6.23903e-09
3.12899e-06
1.93173e-08
3.12712e-06
4.85513e-08
3.1232e-06
7.43774e-08
3.12041e-06
1.06079e-07
3.11831e-06
1.39355e-07
1.70223e-07
3.11732e-06
3.27741e-06
4.25434e-07
3.26697e-06
-1.77306e-07
3.27332e-06
-2.16996e-08
3.27086e-06
7.71128e-08
3.27632e-06
-4.72898e-08
3.27307e-06
-1.0847e-08
3.27856e-06
1.31595e-08
3.27542e-06
-3.09696e-08
3.28068e-06
-1.60976e-09
3.27684e-06
-4.02751e-08
3.28077e-06
-2.04076e-08
3.27872e-06
-2.26669e-08
3.2807e-06
-9.92313e-09
3.27981e-06
7.13171e-09
3.27892e-06
2.02134e-08
3.27705e-06
5.04127e-08
3.2729e-06
7.85285e-08
3.26959e-06
1.09394e-07
3.26848e-06
1.40468e-07
1.71297e-07
3.2674e-06
3.43416e-06
4.1121e-07
3.42241e-06
-1.65561e-07
3.43024e-06
-2.9525e-08
3.42674e-06
8.0612e-08
3.4332e-06
-5.37551e-08
3.42942e-06
-7.06918e-09
3.43518e-06
7.40788e-09
3.43229e-06
-2.80814e-08
3.43704e-06
-6.36317e-09
3.43418e-06
-3.74095e-08
3.43707e-06
-2.32977e-08
3.43618e-06
-2.17827e-08
3.43748e-06
-1.12177e-08
3.43728e-06
7.32456e-09
3.43639e-06
2.11061e-08
3.43486e-06
5.19413e-08
3.42994e-06
8.34518e-08
3.42492e-06
1.14417e-07
3.42489e-06
1.40489e-07
1.7222e-07
3.42397e-06
3.59837e-06
3.96256e-07
3.58524e-06
-1.52441e-07
3.59461e-06
-3.88909e-08
3.59013e-06
8.50911e-08
3.59745e-06
-6.10749e-08
3.59343e-06
-3.04967e-09
3.59906e-06
1.78033e-09
3.59688e-06
-2.59034e-08
3.6007e-06
-1.0179e-08
3.59911e-06
-3.58208e-08
3.60091e-06
-2.50966e-08
3.60102e-06
-2.18974e-08
3.6019e-06
-1.20995e-08
3.60226e-06
6.96926e-09
3.60193e-06
2.14369e-08
3.6035e-06
5.03723e-08
3.60423e-06
8.27208e-08
3.59897e-06
1.19675e-07
3.58291e-06
1.56549e-07
1.68814e-07
3.58632e-06
3.77039e-06
3.80576e-07
3.75585e-06
-1.37903e-07
3.76676e-06
-4.9801e-08
3.76144e-06
9.04055e-08
3.76937e-06
-6.90024e-08
3.7655e-06
8.22851e-10
3.77056e-06
-3.27608e-09
3.76952e-06
-2.48668e-08
3.77212e-06
-1.27795e-08
3.77178e-06
-3.54845e-08
3.77286e-06
-2.61692e-08
3.77344e-06
-2.24838e-08
3.77454e-06
-1.31974e-08
3.7753e-06
6.20774e-09
3.77624e-06
2.04933e-08
3.78157e-06
4.50476e-08
3.78718e-06
7.71058e-08
3.79538e-06
1.11484e-07
3.80855e-06
1.43374e-07
1.91141e-07
3.78622e-06
3.95057e-06
3.64191e-07
3.93463e-06
-1.21957e-07
3.94699e-06
-6.21681e-08
3.94111e-06
9.62937e-08
3.94927e-06
-7.7165e-08
3.94606e-06
4.03281e-09
3.95003e-06
-7.24646e-09
3.95052e-06
-2.53623e-08
3.95179e-06
-1.40449e-08
3.95244e-06
-3.6138e-08
3.95332e-06
-2.70465e-08
3.95387e-06
-2.30355e-08
3.95572e-06
-1.50471e-08
3.95774e-06
4.19034e-09
3.95755e-06
2.06797e-08
3.94994e-06
5.26569e-08
3.94118e-06
8.58716e-08
3.93512e-06
1.17544e-07
3.92665e-06
1.51838e-07
1.83706e-07
3.93409e-06
4.1393e-06
3.4714e-07
4.12202e-06
-1.04672e-07
4.13564e-06
-7.57896e-08
4.12957e-06
1.02362e-07
4.13748e-06
-8.50799e-08
4.13553e-06
5.99156e-09
4.13793e-06
-9.65517e-09
4.14018e-06
-2.76044e-08
4.14023e-06
-1.41023e-08
4.14142e-06
-3.73225e-08
4.14261e-06
-2.82407e-08
4.14286e-06
-2.32856e-08
4.14344e-06
-1.56298e-08
4.13923e-06
8.40279e-09
4.13083e-06
2.90803e-08
4.12762e-06
5.58715e-08
4.12411e-06
8.93788e-08
4.11953e-06
1.22123e-07
4.11681e-06
1.54558e-07
1.79337e-07
4.12118e-06
4.33696e-06
3.29481e-07
4.31848e-06
-8.61935e-08
4.33301e-06
-9.03203e-08
4.32729e-06
1.08082e-07
4.33441e-06
-9.2196e-08
4.33427e-06
6.13149e-09
4.33482e-06
-1.02028e-08
4.33871e-06
-3.14918e-08
4.33801e-06
-1.341e-08
4.33904e-06
-3.83461e-08
4.34038e-06
-2.95819e-08
4.33711e-06
-2.00147e-08
4.33293e-06
-1.14567e-08
4.32877e-06
1.2569e-08
4.32337e-06
3.44825e-08
4.31935e-06
5.98852e-08
4.31669e-06
9.20406e-08
4.31403e-06
1.24785e-07
4.31394e-06
1.54648e-07
1.75946e-07
4.31733e-06
4.54396e-06
3.11295e-07
4.52453e-06
-6.67597e-08
4.53946e-06
-1.0525e-07
4.53475e-06
1.12792e-07
4.54049e-06
-9.79361e-08
4.54265e-06
3.97113e-09
4.54128e-06
-8.83898e-09
4.54637e-06
-3.65836e-08
4.54557e-06
-1.26102e-08
4.54488e-06
-3.76531e-08
4.54431e-06
-2.90129e-08
4.53828e-06
-1.39869e-08
4.53392e-06
-7.09618e-09
4.53038e-06
1.61141e-08
4.5255e-06
3.93567e-08
4.52126e-06
6.41245e-08
4.51904e-06
9.4267e-08
4.51779e-06
1.26034e-07
4.51949e-06
1.52946e-07
1.73576e-07
4.52186e-06
4.76072e-06
2.92688e-07
4.74067e-06
-4.67064e-08
4.75533e-06
-1.1991e-07
4.75237e-06
1.15756e-07
4.75622e-06
-1.01793e-07
4.76094e-06
-7.50954e-10
4.75796e-06
-5.85442e-09
4.7635e-06
-4.21218e-08
4.76275e-06
-1.18578e-08
4.75824e-06
-3.31437e-08
4.75621e-06
-2.69859e-08
4.75021e-06
-7.98384e-09
4.74519e-06
-2.08524e-09
4.74216e-06
1.91519e-08
4.73777e-06
4.37429e-08
4.73348e-06
6.84116e-08
4.73143e-06
9.63251e-08
4.73143e-06
1.26031e-07
4.73345e-06
1.50926e-07
1.71252e-07
4.73577e-06
4.9877e-06
2.73785e-07
4.96745e-06
-2.64569e-08
4.98104e-06
-1.33499e-07
4.98057e-06
1.16231e-07
4.98222e-06
-1.03443e-07
4.98946e-06
-7.99184e-09
4.98541e-06
-1.81111e-09
4.99015e-06
-4.68607e-08
4.98843e-06
-1.01324e-08
4.98061e-06
-2.53241e-08
4.97825e-06
-2.46311e-08
4.97278e-06
-2.51024e-09
4.96716e-06
3.5302e-09
4.96429e-06
2.20294e-08
4.96055e-06
4.74816e-08
4.9564e-06
7.25568e-08
4.95439e-06
9.83368e-08
4.95532e-06
1.25096e-07
4.95714e-06
1.49111e-07
1.6844e-07
4.95995e-06
5.22537e-06
2.54732e-07
5.20542e-06
-6.51011e-09
5.21707e-06
-1.45146e-07
5.2197e-06
1.13605e-07
5.21915e-06
-1.02894e-07
5.22855e-06
-1.73901e-08
5.22395e-06
2.78889e-09
5.22629e-06
-4.92099e-08
5.22279e-06
-6.6276e-09
5.21362e-06
-1.61534e-08
5.21098e-06
-2.19881e-08
5.20647e-06
1.99116e-09
5.20031e-06
9.69011e-09
5.19723e-06
2.51151e-08
5.19419e-06
5.05173e-08
5.19042e-06
7.63285e-08
5.18855e-06
1.00208e-07
5.18978e-06
1.2387e-07
5.19181e-06
1.47076e-07
1.65223e-07
5.19503e-06
5.47424e-06
2.3568e-07
5.45512e-06
1.26081e-08
5.46407e-06
-1.54095e-07
5.46999e-06
1.07683e-07
5.46768e-06
-1.00583e-07
5.47852e-06
-2.82248e-08
5.4735e-06
7.80457e-09
5.47152e-06
-4.72269e-08
5.46781e-06
-2.91673e-09
5.45815e-06
-6.4944e-09
5.45504e-06
-1.88766e-08
5.45161e-06
5.41969e-09
5.44515e-06
1.61532e-08
5.44157e-06
2.86871e-08
5.43914e-06
5.29525e-08
5.43597e-06
7.94971e-08
5.43438e-06
1.01796e-07
5.43547e-06
1.22783e-07
5.43794e-06
1.44608e-07
1.61609e-07
5.44155e-06
5.73486e-06
2.16782e-07
5.71712e-06
3.03458e-08
5.72282e-06
-1.59797e-07
5.73167e-06
9.88323e-08
5.72809e-06
-9.70073e-08
5.73858e-06
-3.8708e-08
5.73126e-06
1.51253e-08
5.72705e-06
-4.30161e-08
5.72448e-06
-3.5497e-10
5.71495e-06
3.03966e-09
5.71099e-06
-1.49158e-08
5.70856e-06
7.85403e-09
5.70216e-06
2.25511e-08
5.69794e-06
3.29e-08
5.6959e-06
5.49982e-08
5.69351e-06
8.18852e-08
5.69232e-06
1.02985e-07
5.69315e-06
1.21952e-07
5.69598e-06
1.41778e-07
1.57567e-07
5.70002e-06
6.0078e-06
1.9818e-07
5.99198e-06
4.61594e-08
5.99421e-06
-1.62024e-07
6.00486e-06
8.81789e-08
5.99943e-06
-9.15716e-08
6.00722e-06
-4.65017e-08
5.99982e-06
2.2526e-08
5.9948e-06
-3.79978e-08
5.99374e-06
7.03385e-10
5.98451e-06
1.22697e-08
5.97948e-06
-9.88538e-09
5.97776e-06
9.57204e-09
5.97186e-06
2.84508e-08
5.96699e-06
3.7776e-08
5.96506e-06
5.69236e-08
5.96356e-06
8.33849e-08
5.96284e-06
1.03709e-07
5.9635e-06
1.21296e-07
5.96653e-06
1.38744e-07
1.53121e-07
5.97098e-06
6.29368e-06
1.79993e-07
6.28022e-06
5.96118e-08
6.27915e-06
-1.60951e-07
6.28987e-06
7.74613e-08
6.28209e-06
-8.37924e-08
6.28868e-06
-5.30898e-08
6.28228e-06
2.89223e-08
6.27593e-06
-3.16529e-08
6.27595e-06
6.83257e-10
6.26739e-06
2.08354e-08
6.26116e-06
-3.65284e-09
6.25978e-06
1.09445e-08
6.25477e-06
3.34673e-08
6.24938e-06
4.31637e-08
6.24729e-06
5.9017e-08
6.2467e-06
8.39762e-08
6.24645e-06
1.03957e-07
6.24713e-06
1.20615e-07
6.25022e-06
1.35649e-07
1.48362e-07
6.25498e-06
6.59314e-06
1.62321e-07
6.58232e-06
7.0429e-08
6.57836e-06
-1.56985e-07
6.58794e-06
6.78808e-08
6.57887e-06
-7.47193e-08
6.58436e-06
-5.85854e-08
6.57895e-06
3.43297e-08
6.57102e-06
-2.37202e-08
6.57164e-06
6.24682e-11
6.56413e-06
2.83477e-08
6.5567e-06
3.78141e-09
6.55525e-06
1.23907e-08
6.55135e-06
3.73642e-08
6.54578e-06
4.87402e-08
6.54329e-06
6.15014e-08
6.54346e-06
8.38066e-08
6.54374e-06
1.03677e-07
6.54465e-06
1.19708e-07
6.54773e-06
1.32566e-07
1.43414e-07
6.55268e-06
6.90687e-06
1.45245e-07
6.89871e-06
7.85818e-08
6.89254e-06
-1.50808e-07
6.90078e-06
5.96426e-08
6.89043e-06
-6.43695e-08
6.89446e-06
-6.26238e-08
6.89016e-06
3.86363e-08
6.88073e-06
-1.42975e-08
6.88141e-06
-6.09451e-10
6.8753e-06
3.44566e-08
6.86683e-06
1.2249e-08
6.86488e-06
1.43396e-08
6.86214e-06
4.01075e-08
6.8568e-06
5.40774e-08
6.85385e-06
6.44501e-08
6.85447e-06
8.31877e-08
6.85535e-06
1.02801e-07
6.85665e-06
1.18406e-07
6.85973e-06
1.29486e-07
1.38401e-07
6.86474e-06
7.23556e-06
1.28825e-07
7.22988e-06
8.42552e-08
7.22242e-06
-1.43346e-07
7.22935e-06
5.27143e-08
7.2175e-06
-5.25252e-08
7.21957e-06
-6.46932e-08
7.21641e-06
4.18048e-08
7.20579e-06
-3.67813e-09
7.20595e-06
-7.72433e-10
7.20144e-06
3.89684e-08
7.19232e-06
2.1366e-08
7.18947e-06
1.71858e-08
7.18771e-06
4.18715e-08
7.18304e-06
5.87446e-08
7.17976e-06
6.77316e-08
7.18045e-06
8.2502e-08
7.18192e-06
1.01325e-07
7.18375e-06
1.16574e-07
7.18691e-06
1.26332e-07
1.3341e-07
7.1919e-06
7.57994e-06
1.13111e-07
7.57651e-06
8.76804e-08
7.56863e-06
-1.35459e-07
7.57455e-06
4.67939e-08
7.5609e-06
-3.88791e-08
7.56038e-06
-6.41757e-08
7.55832e-06
4.38719e-08
7.54692e-06
7.72388e-09
7.54605e-06
9.619e-11
7.54313e-06
4.18891e-08
7.53389e-06
3.05979e-08
7.52989e-06
2.1189e-08
7.52875e-06
4.30081e-08
7.52507e-06
6.2432e-08
7.52176e-06
7.10353e-08
7.5222e-06
8.20662e-08
7.52418e-06
9.93488e-08
7.52662e-06
1.14131e-07
7.52996e-06
1.22989e-07
1.28473e-07
7.5349e-06
7.94078e-06
9.81441e-08
7.93923e-06
8.92276e-08
7.9318e-06
-1.28024e-07
7.93738e-06
4.12099e-08
7.92135e-06
-2.28513e-08
7.91766e-06
-6.04829e-08
7.91658e-06
4.49479e-08
7.90487e-06
1.94401e-08
7.90257e-06
2.39165e-09
7.90102e-06
4.34397e-08
7.89223e-06
3.9393e-08
7.88703e-06
2.63845e-08
7.88607e-06
4.3965e-08
7.88349e-06
6.50169e-08
7.88055e-06
7.39728e-08
7.88059e-06
8.20272e-08
7.88288e-06
9.70569e-08
7.88594e-06
1.11075e-07
7.88959e-06
1.19337e-07
1.23557e-07
7.89451e-06
8.31884e-06
8.39876e-08
8.31876e-06
8.93034e-08
8.3132e-06
-1.22461e-07
8.31844e-06
3.59641e-08
8.29946e-06
-3.86332e-09
8.29226e-06
-5.3286e-08
8.29196e-06
4.52468e-08
8.28042e-06
3.09768e-08
8.27643e-06
6.38706e-09
8.27585e-06
4.40191e-08
8.26796e-06
4.72774e-08
8.26176e-06
3.25875e-08
8.26057e-06
4.51562e-08
8.25901e-06
6.6577e-08
8.25678e-06
7.62006e-08
8.25649e-06
8.23227e-08
8.2589e-06
9.46482e-08
8.26248e-06
1.07487e-07
8.26653e-06
1.15293e-07
1.18585e-07
8.2715e-06
8.71491e-06
7.07358e-08
8.71687e-06
8.73438e-08
8.71199e-06
-1.17579e-07
8.71694e-06
3.10161e-08
8.69556e-06
1.7517e-08
8.68506e-06
-4.27824e-08
8.68532e-06
4.49844e-08
8.67439e-06
4.19015e-08
8.66854e-06
1.22361e-08
8.66843e-06
4.41373e-08
8.6618e-06
5.39028e-08
8.65493e-06
3.94551e-08
8.65321e-06
4.68796e-08
8.65246e-06
6.73261e-08
8.65113e-06
7.75301e-08
8.65072e-06
8.27311e-08
8.65311e-06
9.22625e-08
8.65709e-06
1.03505e-07
8.66156e-06
1.10826e-07
1.13476e-07
8.66667e-06
9.12982e-06
5.85349e-08
9.1351e-06
8.2064e-08
9.12889e-06
-1.11368e-07
9.1305e-06
2.94043e-08
9.11e-06
3.80125e-08
9.09703e-06
-2.98068e-08
9.09754e-06
4.44702e-08
9.08757e-06
5.18709e-08
9.07991e-06
1.99023e-08
9.07966e-06
4.43852e-08
9.07447e-06
5.90938e-08
9.06738e-06
4.65436e-08
9.06498e-06
4.9279e-08
9.06478e-06
6.75261e-08
9.06433e-06
7.7982e-08
9.06412e-06
8.29427e-08
9.06644e-06
8.9942e-08
9.07067e-06
9.92761e-08
9.07553e-06
1.05961e-07
1.08166e-07
9.08084e-06
9.56442e-06
4.75773e-08
9.5681e-06
7.83864e-08
9.55527e-06
-9.85422e-08
9.55996e-06
2.47176e-08
9.54368e-06
5.429e-08
9.52923e-06
-1.53617e-08
9.52952e-06
4.41887e-08
9.52074e-06
6.06453e-08
9.51153e-06
2.91167e-08
9.51055e-06
4.53647e-08
9.50674e-06
6.28968e-08
9.49992e-06
5.33674e-08
9.49687e-06
5.23306e-08
9.49694e-06
6.74542e-08
9.49722e-06
7.77027e-08
9.49748e-06
8.26813e-08
9.4998e-06
8.7625e-08
9.50416e-06
9.49149e-08
9.50936e-06
1.00758e-07
1.0261e-07
9.51492e-06
1.00197e-05
3.80342e-08
1.00174e-05
8.07112e-08
1.00032e-05
-8.44321e-08
1.00101e-05
1.78991e-08
9.99791e-06
6.6437e-08
9.98253e-06
2.03538e-11
9.98212e-06
4.46013e-08
9.97472e-06
6.80483e-08
9.96439e-06
3.94436e-08
9.96219e-06
4.75613e-08
9.9595e-06
6.55882e-08
9.95338e-06
5.94883e-08
9.94986e-06
5.58521e-08
9.94994e-06
6.73748e-08
9.95077e-06
7.68749e-08
9.95165e-06
8.17998e-08
9.95409e-06
8.51877e-08
9.95852e-06
9.04809e-08
9.96398e-06
9.52964e-08
9.67962e-08
9.96979e-06
1.04967e-05
2.99765e-08
1.04904e-05
8.70356e-08
1.04784e-05
-7.2453e-08
1.04836e-05
1.26913e-08
1.04739e-05
7.61571e-08
1.04578e-05
1.6113e-08
1.04563e-05
4.60773e-08
1.04503e-05
7.40221e-08
1.04394e-05
5.03378e-08
1.04357e-05
5.12995e-08
1.04337e-05
6.76087e-08
1.04286e-05
6.46218e-08
1.04249e-05
5.95481e-08
1.04248e-05
6.74492e-08
1.0426e-05
7.56963e-08
1.04275e-05
8.02681e-08
1.04302e-05
8.2493e-08
1.04347e-05
8.59689e-08
1.04404e-05
8.96372e-08
9.07408e-08
1.04464e-05
1.09968e-05
2.31494e-08
1.10059e-05
7.7958e-08
1.09812e-05
-4.77539e-08
1.09804e-05
1.34911e-08
1.09726e-05
8.39403e-08
1.0956e-05
3.27233e-08
1.09531e-05
4.9007e-08
1.09485e-05
7.86691e-08
1.09376e-05
6.11628e-08
1.09323e-05
5.66464e-08
1.09304e-05
6.94632e-08
1.09264e-05
6.86942e-08
1.09228e-05
6.30748e-08
1.09226e-05
6.76894e-08
1.09239e-05
7.43839e-08
1.0926e-05
7.81416e-08
1.09291e-05
7.94505e-08
1.09337e-05
8.13419e-08
1.09395e-05
8.38208e-08
8.4476e-08
1.09458e-05
1.15206e-05
1.78954e-08
1.15181e-05
8.05211e-08
1.15019e-05
-3.16273e-08
1.1502e-05
1.33782e-08
1.14957e-05
9.02521e-08
1.14786e-05
4.98537e-08
1.14738e-05
5.38304e-08
1.14701e-05
8.23118e-08
1.14599e-05
7.14027e-08
1.14531e-05
6.343e-08
1.14509e-05
7.16835e-08
1.14477e-05
7.18577e-08
1.14447e-05
6.61477e-08
1.14444e-05
6.79405e-08
1.14457e-05
7.30951e-08
1.14483e-05
7.55098e-08
1.14518e-05
7.60153e-08
1.14566e-05
7.65342e-08
1.14625e-05
7.78479e-08
7.80072e-08
1.1469e-05
1.20697e-05
1.40356e-08
1.20677e-05
8.25121e-08
1.20491e-05
-1.29958e-08
1.20486e-05
1.38643e-08
1.20439e-05
9.49582e-08
1.20265e-05
6.72116e-08
1.20195e-05
6.08695e-08
1.20164e-05
8.54258e-08
1.20071e-05
8.06183e-08
1.19993e-05
7.12228e-08
1.19964e-05
7.4672e-08
1.19938e-05
7.43789e-08
1.19914e-05
6.86175e-08
1.19912e-05
6.8063e-08
1.19926e-05
7.17453e-08
1.19955e-05
7.25685e-08
1.19993e-05
7.2205e-08
1.20044e-05
7.15071e-08
1.20105e-05
7.17094e-08
7.13326e-08
1.20172e-05
1.2645e-05
1.15804e-08
1.26429e-05
8.46371e-08
1.26247e-05
5.18711e-09
1.26216e-05
1.69753e-08
1.26179e-05
9.86405e-08
1.2601e-05
8.41916e-08
1.25916e-05
7.02684e-08
1.25884e-05
8.86382e-08
1.25804e-05
8.86211e-08
1.2572e-05
7.95267e-08
1.2568e-05
7.86725e-08
1.25658e-05
7.66138e-08
1.25639e-05
7.04973e-08
1.2564e-05
6.79985e-08
1.25657e-05
7.00217e-08
1.25688e-05
6.95361e-08
1.2573e-05
6.80077e-08
1.25782e-05
6.62775e-08
1.25845e-05
6.53724e-08
6.44218e-08
1.25914e-05
1.32481e-05
1.04613e-08
1.3251e-05
8.16993e-08
1.32304e-05
2.57914e-08
1.32225e-05
2.48807e-08
1.32191e-05
1.01974e-07
1.32031e-05
1.00259e-07
1.31914e-05
8.19574e-08
1.31874e-05
9.26252e-08
1.31805e-05
9.54755e-08
1.31723e-05
8.77958e-08
1.31673e-05
8.36701e-08
1.3165e-05
7.89251e-08
1.31635e-05
7.19269e-08
1.31639e-05
6.76665e-08
1.31661e-05
6.77691e-08
1.31692e-05
6.64442e-08
1.31739e-05
6.33545e-08
1.31791e-05
6.10031e-08
1.31857e-05
5.87749e-08
5.72417e-08
1.31929e-05
1.388e-05
1.0632e-08
1.38838e-05
7.78565e-08
1.38635e-05
4.61479e-08
1.38524e-05
3.5981e-08
1.38489e-05
1.05456e-07
1.3834e-05
1.15141e-07
1.38204e-05
9.55977e-08
1.3815e-05
9.80125e-08
1.3809e-05
1.01498e-07
1.38012e-05
9.5611e-08
1.37954e-05
8.94277e-08
1.37926e-05
8.16725e-08
1.37915e-05
7.31101e-08
1.37921e-05
6.70216e-08
1.37948e-05
6.50956e-08
1.37982e-05
6.30374e-08
1.38033e-05
5.82195e-08
1.38085e-05
5.58086e-08
1.38155e-05
5.18265e-08
4.97635e-08
1.38229e-05
1.45423e-05
1.20098e-08
1.45408e-05
7.9384e-08
1.4525e-05
6.19259e-08
1.45127e-05
4.82922e-08
1.45086e-05
1.09496e-07
1.4495e-05
1.28771e-07
1.44799e-05
1.10655e-07
1.44726e-05
1.05328e-07
1.44669e-05
1.07214e-07
1.44597e-05
1.02795e-07
1.44536e-05
9.5527e-08
1.44502e-05
8.50967e-08
1.44491e-05
7.42599e-08
1.44499e-05
6.61339e-08
1.44529e-05
6.21429e-08
1.4457e-05
5.89515e-08
1.44622e-05
5.29762e-08
1.44679e-05
5.01007e-08
1.4475e-05
4.48075e-08
4.18668e-08
1.44828e-05
1.52365e-05
1.4365e-08
1.52372e-05
7.86652e-08
1.52196e-05
7.95612e-08
1.52045e-05
6.33764e-08
1.51997e-05
1.14368e-07
1.51873e-05
1.41165e-07
1.51714e-05
1.26559e-07
1.51619e-05
1.1481e-07
1.51558e-05
1.13252e-07
1.51492e-05
1.09411e-07
1.51431e-05
1.01607e-07
1.5139e-05
8.91889e-08
1.51377e-05
7.5654e-08
1.51386e-05
6.51661e-08
1.51418e-05
5.89363e-08
1.51466e-05
5.41421e-08
1.51518e-05
4.78524e-08
1.51586e-05
4.32121e-08
1.51654e-05
3.80364e-08
3.33919e-08
1.51739e-05
1.59641e-05
1.75992e-08
1.59653e-05
7.74728e-08
1.59468e-05
9.8082e-08
1.59299e-05
8.02517e-08
1.59235e-05
1.20755e-07
1.59122e-05
1.52438e-07
1.58959e-05
1.42851e-07
1.58843e-05
1.26406e-07
1.58773e-05
1.20267e-07
1.5871e-05
1.15742e-07
1.58651e-05
1.07532e-07
1.58606e-05
9.36979e-08
1.58586e-05
7.75989e-08
1.58595e-05
6.42765e-08
1.58629e-05
5.55295e-08
1.58681e-05
4.89129e-08
1.58738e-05
4.22089e-08
1.58812e-05
3.58463e-08
1.58888e-05
3.03446e-08
2.51695e-08
1.58971e-05
1.67265e-05
2.16894e-08
1.67186e-05
8.54199e-08
1.67081e-05
1.08571e-07
1.66906e-05
9.77306e-08
1.66819e-05
1.2944e-07
1.66714e-05
1.62989e-07
1.66551e-05
1.59157e-07
1.66416e-05
1.39908e-07
1.66331e-05
1.28768e-07
1.66266e-05
1.22225e-07
1.66207e-05
1.1341e-07
1.66161e-05
9.83299e-08
1.66134e-05
8.02521e-08
1.6614e-05
6.36763e-08
1.66175e-05
5.20821e-08
1.66229e-05
4.34478e-08
1.66294e-05
3.56877e-08
1.66372e-05
2.80965e-08
1.66459e-05
2.16097e-08
1.68441e-08
1.66543e-05
1.7526e-05
2.60975e-08
1.75301e-05
8.1225e-08
1.7509e-05
1.2968e-07
1.74879e-05
1.18904e-07
1.74766e-05
1.40669e-07
1.74662e-05
1.7342e-07
1.74502e-05
1.75196e-07
1.7435e-05
1.55041e-07
1.74247e-05
1.39097e-07
1.74175e-05
1.294e-07
1.74115e-05
1.19463e-07
1.74067e-05
1.03104e-07
1.74034e-05
8.35744e-08
1.74034e-05
6.36283e-08
1.74067e-05
4.8794e-08
1.74125e-05
3.76968e-08
1.74198e-05
2.8378e-08
1.74282e-05
1.96947e-08
1.74374e-05
1.23662e-08
7.09607e-09
1.74472e-05
1.83634e-05
3.10005e-08
1.8354e-05
9.06227e-08
1.8345e-05
1.3876e-07
1.8324e-05
1.3983e-07
1.83097e-05
1.55023e-07
1.82986e-05
1.84489e-07
1.82829e-05
1.90926e-07
1.82664e-05
1.71554e-07
1.8254e-05
1.51455e-07
1.82456e-05
1.3784e-07
1.8239e-05
1.26015e-07
1.82339e-05
1.08269e-07
1.82299e-05
8.75099e-08
1.82292e-05
6.43159e-08
1.82322e-05
4.58542e-08
1.82381e-05
3.17606e-08
1.82461e-05
2.03582e-08
1.82555e-05
1.03751e-08
1.82657e-05
2.15441e-09
-3.8276e-09
1.82766e-05
1.92413e-05
3.60645e-08
1.92359e-05
9.60582e-08
1.92214e-05
1.53237e-07
1.92002e-05
1.6102e-07
1.91828e-05
1.72412e-07
1.91705e-05
1.96871e-07
1.91548e-05
2.06552e-07
1.91372e-05
1.8918e-07