/*--------------------------------*- C++ -*----------------------------------*\
| =========                 |                                                 |
| \\      /  F ield         | OpenFOAM: The Open Source CFD Toolbox           |
|  \\    /   O peration     | Version:  v2012                                 |
|   \\  /    A nd           | Website:  www.openfoam.com                      |
|    \\/     M anipulation  |                                                 |
\*---------------------------------------------------------------------------*/
FoamFile
{
    version     2.0;
    format      ascii;
    class       volVectorField;
    location    "3.75";
    object      U;
}
// * * * * * * * * * * * * * * * * * * * * * * * * * * * * * * * * * * * * * //

dimensions      [0 1 -1 0 0 0 0];


internalField   nonuniform List<vector> 
17600
(
(0.84221 0.00551683 0)
(1.16258 -0.00347562 0)
(0.821771 -0.00123789 0)
(1.14979 0.00184814 0)
(0.831663 -0.000690874 0)
(1.13642 -3.60774e-05 0)
(0.836996 0.000566009 0)
(1.12843 -0.00030163 0)
(0.843626 0.000447905 0)
(1.11868 -0.0012269 0)
(0.84845 0.000291004 0)
(1.11193 -0.00140237 0)
(0.852793 0.000507247 0)
(1.10702 -0.00107268 0)
(0.855017 0.00111596 0)
(1.10433 -0.000225319 0)
(0.853365 0.00226583 0)
(1.10305 0.000340952 0)
(0.844726 0.00354416 0)
(1.10117 0.000895292 0)
(0.850341 0.00540347 0)
(1.14829 -0.00314335 0)
(0.831991 -0.0013292 0)
(1.13475 0.00194302 0)
(0.847007 -0.000770781 0)
(1.11987 0.000144474 0)
(0.855655 0.000425548 0)
(1.10851 -0.000130443 0)
(0.86692 0.000297709 0)
(1.09449 -0.00105515 0)
(0.877225 0.000116147 0)
(1.08181 -0.00123073 0)
(0.889389 0.000339103 0)
(1.0678 -0.000909188 0)
(0.903979 0.001022 0)
(1.0504 -7.08233e-05 0)
(0.922399 0.00254424 0)
(1.02524 0.000177853 0)
(0.945116 0.00493431 0)
(0.985895 -1.20893e-06 0)
(0.866602 0.00532578 0)
(1.12524 -0.00281982 0)
(0.853749 -0.00140648 0)
(1.1068 0.00199048 0)
(0.874806 -0.00081601 0)
(1.09017 0.000237374 0)
(0.88773 0.000356112 0)
(1.07522 -6.40663e-05 0)
(0.904131 0.000280171 0)
(1.05756 -0.00100845 0)
(0.919208 0.000129222 0)
(1.041 -0.00125884 0)
(0.935444 0.000430728 0)
(1.02385 -0.00105591 0)
(0.952056 0.00125059 0)
(1.00659 -0.000410544 0)
(0.967244 0.00287859 0)
(0.989949 -8.35889e-05 0)
(0.976624 0.00528616 0)
(0.975313 0.000928619 0)
(0.888741 0.00532084 0)
(1.09805 -0.00259478 0)
(0.884119 -0.00138677 0)
(1.07264 0.00193132 0)
(0.90841 -0.000787677 0)
(1.05596 0.000216926 0)
(0.922726 0.000402542 0)
(1.04051 -0.000141236 0)
(0.940187 0.000387701 0)
(1.02421 -0.00111889 0)
(0.954314 0.000282608 0)
(1.01072 -0.00142812 0)
(0.966676 0.000634472 0)
(0.99934 -0.00128096 0)
(0.976181 0.00148854 0)
(0.99109 -0.000648732 0)
(0.981739 0.00310294 0)
(0.985735 -0.00014049 0)
(0.981763 0.00539983 0)
(0.980966 0.00193573 0)
(0.913432 0.00536164 0)
(1.07111 -0.0024675 0)
(0.916997 -0.00125773 0)
(1.04053 0.00180053 0)
(0.940024 -0.000711439 0)
(1.02681 0.000136188 0)
(0.951742 0.000499715 0)
(1.01487 -0.000276719 0)
(0.965887 0.000514011 0)
(1.0041 -0.00125549 0)
(0.975364 0.000417487 0)
(0.996909 -0.00156245 0)
(0.981797 0.000765482 0)
(0.991967 -0.0013975 0)
(0.985313 0.00160382 0)
(0.989253 -0.000721587 0)
(0.986393 0.00319257 0)
(0.987355 -5.2599e-05 0)
(0.984639 0.00547518 0)
(0.983641 0.00286574 0)
(0.937228 0.00542309 0)
(1.04814 -0.00242382 0)
(0.946397 -0.00105321 0)
(1.01678 0.00164967 0)
(0.964535 -0.000630594 0)
(1.00813 5.19794e-05 0)
(0.971596 0.000587112 0)
(1.00155 -0.000397859 0)
(0.981011 0.000594043 0)
(0.996524 -0.00135102 0)
(0.986169 0.00048444 0)
(0.994027 -0.0016274 0)
(0.988822 0.000819735 0)
(0.992191 -0.00143518 0)
(0.989689 0.00164566 0)
(0.990992 -0.000731052 0)
(0.989461 0.00321741 0)
(0.989488 8.7571e-05 0)
(0.987453 0.00551034 0)
(0.986007 0.00370751 0)
(0.957454 0.00548352 0)
(1.03116 -0.00243769 0)
(0.968851 -0.000823478 0)
(1.00336 0.00151801 0)
(0.980932 -0.000572115 0)
(0.999639 -8.30305e-06 0)
(0.983829 0.000639808 0)
(0.997595 -0.000485076 0)
(0.989558 0.000625229 0)
(0.996071 -0.00141041 0)
(0.992233 0.000507601 0)
(0.995684 -0.00165596 0)
(0.993217 0.000842731 0)
(0.994672 -0.001441 0)
(0.993073 0.00166079 0)
(0.99356 -0.000702661 0)
(0.992294 0.00319799 0)
(0.991941 0.000305379 0)
(0.990075 0.00547941 0)
(0.988651 0.00451203 0)
(0.972791 0.00552459 0)
(1.02013 -0.00247883 0)
(0.98382 -0.000610999 0)
(0.998216 0.00142088 0)
(0.990904 -0.00053909 0)
(0.997683 -4.6602e-05 0)
(0.991334 0.000661938 0)
(0.998311 -0.000547762 0)
(0.994937 0.000630235 0)
(0.998172 -0.00145193 0)
(0.996456 0.00051458 0)
(0.998411 -0.0016692 0)
(0.99674 0.000859494 0)
(0.997456 -0.00142782 0)
(0.996095 0.00166818 0)
(0.996172 -0.000635526 0)
(0.994936 0.00314283 0)
(0.994381 0.000603845 0)
(0.992554 0.00539355 0)
(0.991199 0.00527822 0)
(0.983288 0.00553688 0)
(1.01365 -0.0025237 0)
(0.992692 -0.000438897 0)
(0.997701 0.00135286 0)
(0.996728 -0.000521153 0)
(0.99852 -7.51691e-05 0)
(0.996161 0.00066759 0)
(1.00035 -0.000597171 0)
(0.998677 0.000627345 0)
(1.00049 -0.00148397 0)
(0.999622 0.000516897 0)
(1.00084 -0.0016712 0)
(0.999561 0.000873796 0)
(0.999824 -0.00139427 0)
(0.998624 0.00166638 0)
(0.998406 -0.000527921 0)
(0.997208 0.00305713 0)
(0.996484 0.000966647 0)
(0.994739 0.00527931 0)
(0.993414 0.00598478 0)
(0.989889 0.00552102 0)
(1.01004 -0.00255962 0)
(0.997452 -0.000310673 0)
(0.998821 0.00130085 0)
(1.00011 -0.000507139 0)
(0.999895 -0.000102912 0)
(0.999293 0.000667486 0)
(1.00217 -0.00063964 0)
(1.00122 0.000624763 0)
(1.00221 -0.00150854 0)
(1.00182 0.000516783 0)
(1.00257 -0.00166183 0)
(1.00159 0.000880657 0)
(1.00155 -0.0013377 0)
(1.00052 0.00164432 0)
(1.0001 -0.000379603 0)
(0.99897 0.00294553 0)
(0.998128 0.00137411 0)
(0.996498 0.00516435 0)
(0.995209 0.00660806 0)
(0.993809 0.00548322 0)
(1.00801 -0.00258225 0)
(0.999811 -0.000218314 0)
(1.00001 0.00125433 0)
(1.00205 -0.000491179 0)
(1.00096 -0.000132917 0)
(1.00122 0.000666081 0)
(1.00337 -0.000677777 0)
(1.00277 0.00062383 0)
(1.00325 -0.00152627 0)
(1.00316 0.00051277 0)
(1.00362 -0.00164136 0)
(1.00288 0.0008741 0)
(1.00268 -0.00125788 0)
(1.0018 0.00159424 0)
(1.00128 -0.000196899 0)
(1.00024 0.00281091 0)
(0.999342 0.00180355 0)
(0.997847 0.00507508 0)
(0.996619 0.00712876 0)
(0.996086 0.00543011 0)
(1.0068 -0.0025912 0)
(1.00092 -0.00015184 0)
(1.00082 0.00120878 0)
(1.00314 -0.000472874 0)
(1.0016 -0.000164428 0)
(1.00231 0.000664021 0)
(1.00404 -0.000711906 0)
(1.00361 0.000622666 0)
(1.00378 -0.00153686 0)
(1.00386 0.000501117 0)
(1.00419 -0.00160932 0)
(1.00361 0.000848485 0)
(1.00336 -0.00115532 0)
(1.00262 0.00151185 0)
(1.00207 2.31274e-05 0)
(1.00113 0.00266403 0)
(1.00023 0.00222864 0)
(0.998886 0.00503426 0)
(0.997739 0.00753788 0)
(0.997421 0.00536619 0)
(1.00605 -0.00258755 0)
(1.00143 -0.000103299 0)
(1.00126 0.00116332 0)
(1.00373 -0.000454001 0)
(1.00195 -0.000195969 0)
(1.00289 0.000661344 0)
(1.00437 -0.0007418 0)
(1.00401 0.000618947 0)
(1.00401 -0.00153899 0)
(1.00419 0.000478377 0)
(1.00445 -0.00156405 0)
(1.00399 0.000799681 0)
(1.00374 -0.00103104 0)
(1.00312 0.00139937 0)
(1.0026 0.000269455 0)
(1.00175 0.00252241 0)
(1.00089 0.00262309 0)
(0.999707 0.00505487 0)
(0.998659 0.00783983 0)
(0.998216 0.00529388 0)
(1.00557 -0.00257265 0)
(1.00168 -6.77985e-05 0)
(1.00149 0.00111848 0)
(1.00404 -0.000436452 0)
(1.00213 -0.000226158 0)
(1.0032 0.000657242 0)
(1.00453 -0.000767245 0)
(1.0042 0.000610735 0)
(1.00408 -0.00153103 0)
(1.00432 0.000441983 0)
(1.00455 -0.00150321 0)
(1.00419 0.000725499 0)
(1.00395 -0.000887871 0)
(1.00344 0.00126546 0)
(1.00294 0.000517481 0)
(1.00221 0.00240473 0)
(1.00139 0.00296778 0)
(1.00037 0.00513645 0)
(0.999428 0.00805033 0)
(0.998691 0.00521432 0)
(1.00526 -0.00254771 0)
(1.00182 -4.26882e-05 0)
(1.00161 0.00107537 0)
(1.00421 -0.000422041 0)
(1.00223 -0.000253566 0)
(1.00336 0.000650433 0)
(1.00461 -0.000787087 0)
(1.00428 0.000595061 0)
(1.0041 -0.00151033 0)
(1.00437 0.000389315 0)
(1.00459 -0.00142445 0)
(1.00429 0.000626575 0)
(1.00407 -0.000730521 0)
(1.00364 0.00112041 0)
(1.00317 0.000756143 0)
(1.00254 0.00232635 0)
(1.00178 0.00325801 0)
(1.00091 0.00526981 0)
(1.00007 0.00819162 0)
(0.99897 0.00512808 0)
(1.00506 -0.00251352 0)
(1.00191 -2.68334e-05 0)
(1.00166 0.00103557 0)
(1.00429 -0.000412525 0)
(1.00229 -0.000276715 0)
(1.00345 0.000639109 0)
(1.00465 -0.000798901 0)
(1.00432 0.000568357 0)
(1.00409 -0.00147466 0)
(1.0044 0.000318849 0)
(1.0046 -0.00132892 0)
(1.00435 0.0005087 0)
(1.00413 -0.000565422 0)
(1.00378 0.000976918 0)
(1.00333 0.000970664 0)
(1.00279 0.00229182 0)
(1.00208 0.00349949 0)
(1.00135 0.00544047 0)
(1.00062 0.00828632 0)
(0.999133 0.00503543 0)
(1.0049 -0.00247042 0)
(1.00198 -2.00567e-05 0)
(1.00167 0.00100066 0)
(1.00433 -0.000409414 0)
(1.00232 -0.000294374 0)
(1.0035 0.00062029 0)
(1.00466 -0.000801227 0)
(1.00433 0.000528509 0)
(1.00408 -0.00142314 0)
(1.00442 0.00023014 0)
(1.0046 -0.00121798 0)
(1.0044 0.00037642 0)
(1.00417 -0.000399156 0)
(1.00389 0.000853932 0)
(1.00344 0.00115351 0)
(1.003 0.00230321 0)
(1.00234 0.00370086 0)
(1.00173 0.00563088 0)
(1.00109 0.00835512 0)
(0.999232 0.00493654 0)
(1.00478 -0.00241853 0)
(1.00204 -2.25283e-05 0)
(1.00165 0.000971881 0)
(1.00435 -0.000414303 0)
(1.00233 -0.000304754 0)
(1.00353 0.000591286 0)
(1.00465 -0.000792765 0)
(1.00434 0.000474367 0)
(1.00406 -0.001355 0)
(1.00443 0.00012713 0)
(1.00459 -0.0010964 0)
(1.00444 0.000237901 0)
(1.0042 -0.000240349 0)
(1.00399 0.000763295 0)
(1.00354 0.00130469 0)
(1.00318 0.00235875 0)
(1.00257 0.00387135 0)
(1.00206 0.00582507 0)
(1.0015 0.00841626 0)
(0.999301 0.00483146 0)
(1.00466 -0.00235766 0)
(1.0021 -3.47878e-05 0)
(1.00162 0.000950898 0)
(1.00435 -0.000429406 0)
(1.00234 -0.000305271 0)
(1.00354 0.000550066 0)
(1.00464 -0.000772377 0)
(1.00434 0.000405569 0)
(1.00404 -0.00127231 0)
(1.00445 1.86221e-05 0)
(1.00459 -0.000970255 0)
(1.00449 0.000108256 0)
(1.00422 -0.000100808 0)
(1.00408 0.00070005 0)
(1.00363 0.00142572 0)
(1.00334 0.0024496 0)
(1.00279 0.00402121 0)
(1.00238 0.00601058 0)
(1.00188 0.00848185 0)
(0.999354 0.00471996 0)
(1.00455 -0.00228674 0)
(1.00217 -5.8895e-05 0)
(1.00159 0.000940542 0)
(1.00435 -0.000456698 0)
(1.00234 -0.000294547 0)
(1.00355 0.000496599 0)
(1.00463 -0.00073955 0)
(1.00435 0.00032145 0)
(1.00403 -0.00117828 0)
(1.00448 -0.000100243 0)
(1.00459 -0.000848694 0)
(1.00454 -3.00274e-06 0)
(1.00425 1.01151e-05 0)
(1.00418 0.00065981 0)
(1.00373 0.00152228 0)
(1.00351 0.00256448 0)
(1.00302 0.0041616 0)
(1.0027 0.00617895 0)
(1.00225 0.00855469 0)
(0.999401 0.00460166 0)
(1.00444 -0.00220487 0)
(1.00223 -9.60148e-05 0)
(1.00155 0.000940949 0)
(1.00434 -0.00049804 0)
(1.00234 -0.000271453 0)
(1.00355 0.000429875 0)
(1.00461 -0.000694879 0)
(1.00435 0.000225885 0)
(1.00401 -0.0010779 0)
(1.00451 -0.000226437 0)
(1.00459 -0.000744806 0)
(1.00459 -9.89411e-05 0)
(1.00428 9.25793e-05 0)
(1.00427 0.000644151 0)
(1.00384 0.00160534 0)
(1.00369 0.00269554 0)
(1.00325 0.00430621 0)
(1.00302 0.00633089 0)
(1.0026 0.00863349 0)
(0.999441 0.00447689 0)
(1.00434 -0.00211254 0)
(1.00229 -0.000146089 0)
(1.00151 0.000952122 0)
(1.00433 -0.000554157 0)
(1.00235 -0.000236575 0)
(1.00355 0.000351183 0)
(1.00459 -0.00064152 0)
(1.00435 0.000121532 0)
(1.00399 -0.000979435 0)
(1.00454 -0.000342051 0)
(1.0046 -0.000662306 0)
(1.00465 -0.000181447 0)
(1.00432 0.000147463 0)
(1.00437 0.000642524 0)
(1.00396 0.00167806 0)
(1.00388 0.00283298 0)
(1.0035 0.00446271 0)
(1.00334 0.00647221 0)
(1.00295 0.00871641 0)
(0.999475 0.00434545 0)
(1.00423 -0.00200702 0)
(1.00235 -0.000213644 0)
(1.00148 0.00097908 0)
(1.00431 -0.000625394 0)
(1.00235 -0.000193132 0)
(1.00355 0.00026257 0)
(1.00458 -0.000580599 0)
(1.00435 8.86949e-06 0)
(1.00397 -0.000890127 0)
(1.00456 -0.000440897 0)
(1.00461 -0.00060188 0)
(1.0047 -0.000245223 0)
(1.00437 0.000183067 0)
(1.00447 0.000638933 0)
(1.0041 0.00173424 0)
(1.00407 0.00296038 0)
(1.00376 0.00462588 0)
(1.00367 0.00660476 0)
(1.00331 0.00880407 0)
(0.9995 0.00420514 0)
(1.00413 -0.00188428 0)
(1.0024 -0.000301963 0)
(1.00145 0.00102333 0)
(1.00428 -0.000715166 0)
(1.00237 -0.000136403 0)
(1.00354 0.000165438 0)
(1.00457 -0.000516009 0)
(1.00435 -0.000100513 0)
(1.00396 -0.000819048 0)
(1.00458 -0.000521812 0)
(1.00463 -0.000564202 0)
(1.00475 -0.000294169 0)
(1.00443 0.000209179 0)
(1.00458 0.000638745 0)
(1.00426 0.00176897 0)
(1.00428 0.00306713 0)
(1.00403 0.00477943 0)
(1.004 0.00672999 0)
(1.00367 0.00890998 0)
(0.999514 0.00405927 0)
(1.00404 -0.00175068 0)
(1.00243 -0.00040392 0)
(1.00144 0.00107488 0)
(1.00425 -0.000814117 0)
(1.00239 -7.55109e-05 0)
(1.00352 6.85396e-05 0)
(1.00457 -0.000470392 0)
(1.00434 -0.000181577 0)
(1.00395 -0.000786533 0)
(1.0046 -0.000565247 0)
(1.00465 -0.000566102 0)
(1.0048 -0.000318583 0)
(1.0045 0.000207457 0)
(1.00468 0.000666575 0)
(1.00443 0.00175469 0)
(1.00451 0.00313751 0)
(1.00432 0.0048362 0)
(1.00435 0.00682539 0)
(1.00403 0.00902704 0)
(0.999517 0.00390619 0)
(1.00396 -0.00160013 0)
(1.00246 -0.000526771 0)
(1.00143 0.00114088 0)
(1.0042 -0.000925177 0)
(1.00243 -9.72655e-06 0)
(1.0035 -2.87651e-05 0)
(1.00457 -0.000444516 0)
(1.00432 -0.000234752 0)
(1.00396 -0.000778308 0)
(1.0046 -0.000587365 0)
(1.00468 -0.000581781 0)
(1.00484 -0.00034706 0)
(1.00457 0.000200919 0)
(1.00478 0.000696566 0)
(1.00461 0.00173375 0)
(1.00474 0.00314117 0)
(1.00463 0.00482378 0)
(1.00472 0.00678175 0)
(1.00443 0.00896466 0)
(0.99951 0.00374297 0)
(1.00388 -0.00142676 0)
(1.00248 -0.000673535 0)
(1.00142 0.00122176 0)
(1.00414 -0.00104959 0)
(1.00246 5.71292e-05 0)
(1.00346 -0.00011479 0)
(1.00458 -0.000440454 0)
(1.00429 -0.0002649 0)
(1.00396 -0.000785906 0)
(1.00461 -0.000607229 0)
(1.00471 -0.00058372 0)
(1.00489 -0.00039043 0)
(1.00465 0.000180234 0)
(1.00488 0.000703215 0)
(1.0048 0.00173925 0)
(1.00498 0.00318512 0)
(1.00494 0.00488816 0)
(1.00509 0.00678177 0)
(1.00486 0.00893485 0)
(0.999496 0.00357628 0)
(1.00379 -0.00124418 0)
(1.00249 -0.000826174 0)
(1.00142 0.0012977 0)
(1.00407 -0.00116496 0)
(1.00251 9.68195e-05 0)
(1.00342 -0.000159942 0)
(1.00459 -0.000478484 0)
(1.00425 -0.000263993 0)
(1.00397 -0.000811428 0)
(1.00461 -0.00063014 0)
(1.00474 -0.000570879 0)
(1.00493 -0.000422101 0)
(1.00474 0.000170782 0)
(1.00499 0.000788465 0)
(1.00501 0.00180664 0)
(1.00523 0.00332073 0)
(1.00527 0.00501749 0)
(1.00547 0.0068918 0)
(1.0053 0.00893531 0)
(0.99948 0.00340025 0)
(1.00371 -0.00104238 0)
(1.0025 -0.000996101 0)
(1.00142 0.00137619 0)
(1.004 -0.00127497 0)
(1.00256 0.000111715 0)
(1.00336 -0.000171373 0)
(1.00461 -0.000543427 0)
(1.00422 -0.000252372 0)
(1.00397 -0.000825478 0)
(1.00461 -0.000656166 0)
(1.00478 -0.000539059 0)
(1.00496 -0.000397313 0)
(1.00485 0.000267716 0)
(1.00511 0.000981675 0)
(1.00522 0.00196534 0)
(1.0055 0.00344686 0)
(1.00561 0.00516363 0)
(1.00585 0.00700702 0)
(1.00574 0.0089504 0)
(0.999465 0.00321911 0)
(1.00361 -0.000826464 0)
(1.00251 -0.00117984 0)
(1.00142 0.00145012 0)
(1.00393 -0.00136514 0)
(1.00261 9.07416e-05 0)
(1.00331 -0.000152032 0)
(1.00462 -0.000629106 0)
(1.00419 -0.000237878 0)
(1.00397 -0.000808326 0)
(1.00461 -0.000684478 0)
(1.00481 -0.000451372 0)
(1.00501 -0.000282544 0)
(1.00497 0.000408698 0)
(1.00523 0.0011913 0)
(1.00544 0.00214832 0)
(1.00578 0.00354226 0)
(1.00596 0.00527178 0)
(1.00623 0.00708282 0)
(1.00617 0.00893955 0)
(0.999455 0.00303422 0)
(1.0035 -0.000604911 0)
(1.00252 -0.00135792 0)
(1.00141 0.00149943 0)
(1.00385 -0.00142041 0)
(1.00266 2.89938e-05 0)
(1.00325 -0.000106138 0)
(1.00463 -0.000721607 0)
(1.00416 -0.000221289 0)
(1.00396 -0.000762603 0)
(1.00462 -0.000688931 0)
(1.00486 -0.00029222 0)
(1.00506 -0.000131969 0)
(1.00509 0.000510149 0)
(1.00537 0.00137649 0)
(1.00565 0.00232521 0)
(1.00606 0.00362544 0)
(1.00633 0.00532424 0)
(1.00662 0.00711114 0)
(1.00659 0.00888772 0)
(0.999452 0.00284261 0)
(1.00338 -0.000377107 0)
(1.00253 -0.00152438 0)
(1.0014 0.00151903 0)
(1.00376 -0.00145157 0)
(1.00271 -6.38302e-05 0)
(1.00319 -4.83041e-05 0)
(1.00463 -0.000802423 0)
(1.00414 -0.000203337 0)
(1.00394 -0.000663686 0)
(1.00464 -0.000640005 0)
(1.00491 -0.00012825 0)
(1.00511 1.09168e-05 0)
(1.00521 0.000589646 0)
(1.00551 0.0015289 0)
(1.00585 0.00250544 0)
(1.00634 0.00371078 0)
(1.0067 0.00533385 0)
(1.00702 0.0070803 0)
(1.007 0.00878374 0)
(0.999457 0.00265146 0)
(1.00325 -0.000153074 0)
(1.00255 -0.00167768 0)
(1.00138 0.00149705 0)
(1.00368 -0.00145123 0)
(1.00276 -0.000194679 0)
(1.00313 1.9008e-05 0)
(1.00463 -0.000868383 0)
(1.00414 -0.000168621 0)
(1.00393 -0.000482906 0)
(1.00467 -0.00057392 0)
(1.00496 1.05121e-05 0)
(1.00516 0.000172943 0)
(1.00534 0.000678103 0)
(1.00568 0.00164332 0)
(1.00606 0.00267669 0)
(1.00661 0.0038045 0)
(1.00706 0.00531343 0)
(1.00742 0.00699417 0)
(1.00741 0.0086318 0)
(0.99947 0.00245833 0)
(1.00309 5.89057e-05 0)
(1.00256 -0.00180008 0)
(1.00136 0.00142935 0)
(1.00359 -0.00142241 0)
(1.00281 -0.000351178 0)
(1.00308 9.17373e-05 0)
(1.00462 -0.000898409 0)
(1.00415 -9.98488e-05 0)
(1.0039 -0.000253791 0)
(1.00469 -0.000498714 0)
(1.00502 0.000116496 0)
(1.0052 0.0003651 0)
(1.00547 0.000779751 0)
(1.00586 0.00171359 0)
(1.00627 0.00281432 0)
(1.00688 0.00390369 0)
(1.00742 0.00528242 0)
(1.00782 0.00687236 0)
(1.00782 0.00844805 0)
(0.999489 0.00226582 0)
(1.00293 0.000254025 0)
(1.00256 -0.00187851 0)
(1.00135 0.00132752 0)
(1.0035 -0.0013789 0)
(1.00286 -0.000509729 0)
(1.00304 0.000183432 0)
(1.00461 -0.000864639 0)
(1.00418 -3.14457e-05 0)
(1.00387 -3.05867e-05 0)
(1.0047 -0.000408855 0)
(1.00509 0.000190289 0)
(1.00525 0.000559172 0)
(1.00558 0.000896391 0)
(1.00604 0.00175383 0)
(1.0065 0.00290356 0)
(1.00714 0.00399743 0)
(1.00776 0.00525717 0)
(1.00821 0.00673351 0)
(1.00822 0.00824022 0)
(0.999512 0.00207876 0)
(1.00276 0.000431156 0)
(1.00256 -0.00191601 0)
(1.00133 0.00120075 0)
(1.0034 -0.00132025 0)
(1.00292 -0.000659358 0)
(1.00301 0.000304641 0)
(1.0046 -0.000776926 0)
(1.00422 9.24397e-06 0)
(1.00385 0.000177846 0)
(1.00471 -0.000302473 0)
(1.00516 0.00023654 0)
(1.00531 0.000739479 0)
(1.00568 0.00103657 0)
(1.00623 0.00179297 0)
(1.00674 0.00295152 0)
(1.0074 0.00407643 0)
(1.00808 0.0052466 0)
(1.0086 0.00659481 0)
(1.00861 0.00801509 0)
(0.999539 0.001892 0)
(1.00259 0.000591901 0)
(1.00255 -0.00191165 0)
(1.00131 0.00106615 0)
(1.0033 -0.00124591 0)
(1.00298 -0.000784616 0)
(1.00299 0.000427341 0)
(1.00457 -0.00065967 0)
(1.00427 2.43873e-05 0)
(1.00382 0.000380395 0)
(1.00471 -0.000167686 0)
(1.00524 0.000263582 0)
(1.00538 0.000892656 0)
(1.00577 0.00119702 0)
(1.00642 0.00184268 0)
(1.00699 0.00296737 0)
(1.00767 0.00412722 0)
(1.00839 0.00524321 0)
(1.00897 0.00646343 0)
(1.00901 0.00777826 0)
(0.999567 0.00171038 0)
(1.00241 0.000729343 0)
(1.00253 -0.00187979 0)
(1.0013 0.000941072 0)
(1.0032 -0.00114274 0)
(1.00304 -0.000878805 0)
(1.00298 0.000533058 0)
(1.00454 -0.000518699 0)
(1.00433 1.05957e-05 0)
(1.0038 0.000556549 0)
(1.00469 -1.55902e-06 0)
(1.00532 0.000287453 0)
(1.00546 0.00101486 0)
(1.00585 0.00137412 0)
(1.00659 0.00191122 0)
(1.00724 0.00296049 0)
(1.00795 0.00413949 0)
(1.0087 0.00522928 0)
(1.00932 0.00633512 0)
(1.00938 0.00753103 0)
(0.999597 0.00153785 0)
(1.00223 0.000826577 0)
(1.0025 -0.00182121 0)
(1.00129 0.000829998 0)
(1.00309 -0.00100697 0)
(1.00311 -0.000952127 0)
(1.00298 0.000618877 0)
(1.0045 -0.000356642 0)
(1.00439 -1.00276e-05 0)
(1.0038 0.000705321 0)
(1.00466 0.000191848 0)
(1.00541 0.000317096 0)
(1.00556 0.00110003 0)
(1.00594 0.00155624 0)
(1.00675 0.00200786 0)
(1.0075 0.00294705 0)
(1.00824 0.00411551 0)
(1.009 0.00519405 0)
(1.00965 0.00620768 0)
(1.00975 0.00728083 0)
(0.999628 0.00137138 0)
(1.00205 0.000893164 0)
(1.00246 -0.00174049 0)
(1.00129 0.000735342 0)
(1.00298 -0.000840541 0)
(1.00318 -0.00100339 0)
(1.003 0.00067565 0)
(1.00445 -0.000169516 0)
(1.00446 -2.02601e-05 0)
(1.00382 0.000821322 0)
(1.00462 0.000403935 0)
(1.00548 0.000366395 0)
(1.00569 0.00114678 0)
(1.00604 0.00172353 0)
(1.0069 0.00212793 0)
(1.00776 0.00293811 0)
(1.00854 0.00405758 0)
(1.0093 0.00512637 0)
(1.00997 0.00607218 0)
(1.01009 0.00703025 0)
(0.999659 0.00121113 0)
(1.00188 0.000936549 0)
(1.00242 -0.00164962 0)
(1.00129 0.000659443 0)
(1.00287 -0.000642125 0)
(1.00325 -0.00101668 0)
(1.00305 0.000709668 0)
(1.0044 3.69431e-05 0)
(1.00453 -1.427e-05 0)
(1.00385 0.000895173 0)
(1.00458 0.000624918 0)
(1.00555 0.000453393 0)
(1.00583 0.00116994 0)
(1.00615 0.0018614 0)
(1.00704 0.00226266 0)
(1.008 0.00294681 0)
(1.00884 0.00397931 0)
(1.0096 0.00502683 0)
(1.01027 0.00592407 0)
(1.01041 0.00678223 0)
(0.999691 0.00105886 0)
(1.00171 0.000961153 0)
(1.00238 -0.00156247 0)
(1.00131 0.000589052 0)
(1.00277 -0.000419061 0)
(1.00332 -0.00098218 0)
(1.00311 0.000730393 0)
(1.00435 0.000253709 0)
(1.00459 1.23416e-05 0)
(1.00391 0.000934584 0)
(1.00454 0.000842406 0)
(1.0056 0.000577196 0)
(1.00599 0.00117903 0)
(1.00629 0.0019491 0)
(1.00717 0.00238817 0)
(1.00822 0.00296845 0)
(1.00914 0.00388918 0)
(1.00991 0.00489651 0)
(1.01057 0.00575732 0)
(1.01071 0.00653415 0)
(0.999723 0.000911791 0)
(1.00155 0.000971764 0)
(1.00233 -0.00148602 0)
(1.00134 0.000517624 0)
(1.00266 -0.000170685 0)
(1.00338 -0.000898447 0)
(1.00318 0.000740029 0)
(1.00429 0.000469366 0)
(1.00465 7.00387e-05 0)
(1.00399 0.000948656 0)
(1.00452 0.00104199 0)
(1.00563 0.000729881 0)
(1.00614 0.00119235 0)
(1.00644 0.00198807 0)
(1.00731 0.00248882 0)
(1.00843 0.00299615 0)
(1.00943 0.00379659 0)
(1.01022 0.00474187 0)
(1.01086 0.0055692 0)
(1.01099 0.00628122 0)
(0.999755 0.000773162 0)
(1.00139 0.00096305 0)
(1.00228 -0.00142038 0)
(1.00139 0.000447011 0)
(1.00257 0.00010609 0)
(1.00343 -0.000761207 0)
(1.00328 0.00074224 0)
(1.00425 0.000674892 0)
(1.00469 0.000162033 0)
(1.0041 0.000939958 0)
(1.00451 0.00121303 0)
(1.00565 0.000904955 0)
(1.00629 0.00122673 0)
(1.00662 0.00199806 0)
(1.00746 0.00256042 0)
(1.00862 0.00302678 0)
(1.00971 0.00371226 0)
(1.01053 0.00457607 0)
(1.01115 0.00536472 0)
(1.01126 0.00602343 0)
(0.999787 0.000644593 0)
(1.00124 0.00093436 0)
(1.00223 -0.0013658 0)
(1.00145 0.000376789 0)
(1.00249 0.000399575 0)
(1.00347 -0.000563897 0)
(1.00339 0.000750686 0)
(1.00421 0.000875588 0)
(1.00472 0.00029912 0)
(1.00421 0.000929248 0)
(1.00453 0.00135087 0)
(1.00567 0.00109582 0)
(1.00643 0.00128693 0)
(1.00681 0.00199338 0)
(1.00762 0.00259702 0)
(1.0088 0.00304647 0)
(1.00997 0.00363108 0)
(1.01083 0.00440028 0)
(1.01144 0.00514065 0)
(1.01153 0.00575279 0)
(0.999818 0.00053803 0)
(1.0011 0.000882389 0)
(1.00217 -0.00128721 0)
(1.00155 0.000317139 0)
(1.00243 0.000673398 0)
(1.00349 -0.000329375 0)
(1.0035 0.00075942 0)
(1.00419 0.00105765 0)
(1.00474 0.00047332 0)
(1.00433 0.000929517 0)
(1.00457 0.00144536 0)
(1.00568 0.00128453 0)
(1.00655 0.00137124 0)
(1.00701 0.00198608 0)
(1.0078 0.00260326 0)
(1.00898 0.00305 0)
(1.01021 0.00355276 0)
(1.01113 0.00422256 0)
(1.01172 0.0049036 0)
(1.01178 0.00547126 0)
(0.999848 0.000450368 0)
(1.00096 0.00086984 0)
(1.00212 -0.00114002 0)
(1.00166 0.000238675 0)
(1.00238 0.000861851 0)
(1.0035 -0.00010776 0)
(1.00363 0.000752703 0)
(1.00419 0.00120947 0)
(1.00474 0.000679353 0)
(1.00445 0.000961197 0)
(1.00464 0.00150621 0)
(1.00569 0.00145627 0)
(1.00666 0.00147411 0)
(1.00721 0.00198151 0)
(1.00798 0.00258043 0)
(1.00916 0.00302593 0)
(1.01043 0.00346531 0)
(1.0114 0.00403923 0)
(1.012 0.00465267 0)
(1.01203 0.00517583 0)
(0.999878 0.000318818 0)
(1.00084 0.000925434 0)
(1.00206 -0.000912383 0)
(1.00177 0.000195054 0)
(1.00236 0.00101268 0)
(1.0035 0.000122253 0)
(1.00375 0.000743075 0)
(1.00421 0.00131668 0)
(1.00473 0.000888219 0)
(1.00456 0.00101408 0)
(1.00473 0.00153092 0)
(1.00572 0.00158712 0)
(1.00675 0.00157837 0)
(1.00739 0.00197911 0)
(1.00818 0.00253307 0)
(1.00933 0.00296932 0)
(1.01064 0.00336014 0)
(1.01166 0.00384702 0)
(1.01227 0.00438892 0)
(1.01226 0.00486541 0)
(0.999903 0.000257262 0)
(1.00073 0.000906933 0)
(1.00199 -0.000701238 0)
(1.00188 0.000165552 0)
(1.00235 0.00114329 0)
(1.00348 0.000374019 0)
(1.00386 0.000772492 0)
(1.00425 0.00141137 0)
(1.00472 0.00112297 0)
(1.00465 0.0011253 0)
(1.00483 0.00156688 0)
(1.00575 0.00169967 0)
(1.00683 0.00169488 0)
(1.00756 0.00199815 0)
(1.00836 0.00248533 0)
(1.00951 0.00289558 0)
(1.01082 0.00324443 0)
(1.01189 0.0036539 0)
(1.01251 0.00412426 0)
(1.01249 0.00455193 0)
(0.999929 0.000228512 0)
(1.00063 0.000852234 0)
(1.00191 -0.00050874 0)
(1.00199 0.000145633 0)
(1.00237 0.00125214 0)
(1.00345 0.00064542 0)
(1.00396 0.00084354 0)
(1.00431 0.00148697 0)
(1.00471 0.00134887 0)
(1.00472 0.00127255 0)
(1.00492 0.00161041 0)
(1.0058 0.00178063 0)
(1.00689 0.00179571 0)
(1.0077 0.00202308 0)
(1.00854 0.00243389 0)
(1.00967 0.00280281 0)
(1.01099 0.00310999 0)
(1.0121 0.00345071 0)
(1.01274 0.00385193 0)
(1.0127 0.00423057 0)
(0.999949 0.000153646 0)
(1.00055 0.000883372 0)
(1.00184 -0.000264583 0)
(1.0021 0.000169907 0)
(1.0024 0.00133399 0)
(1.00341 0.000912559 0)
(1.00404 0.000930557 0)
(1.00438 0.00152807 0)
(1.00471 0.00153419 0)
(1.00476 0.00143192 0)
(1.00501 0.00166125 0)
(1.00586 0.00183061 0)
(1.00695 0.00186307 0)
(1.00783 0.00203748 0)
(1.0087 0.00237253 0)
(1.00982 0.00268964 0)
(1.01114 0.0029496 0)
(1.01228 0.00322551 0)
(1.01295 0.00355887 0)
(1.01289 0.00388848 0)
(0.999968 0.000117197 0)
(1.00047 0.000929702 0)
(1.00174 -4.23904e-05 0)
(1.0022 0.000189172 0)
(1.00245 0.00137007 0)
(1.00337 0.00116661 0)
(1.00409 0.00105953 0)
(1.00446 0.00157349 0)
(1.00472 0.00170944 0)
(1.00479 0.00162433 0)
(1.00507 0.0017523 0)
(1.0059 0.0018823 0)
(1.007 0.00191313 0)
(1.00793 0.00204499 0)
(1.00883 0.00231112 0)
(1.00995 0.00257233 0)
(1.01127 0.00277828 0)
(1.01243 0.0029889 0)
(1.01313 0.0032535 0)
(1.01307 0.00353252 0)
(0.999984 0.000101507 0)
(1.00041 0.000915489 0)
(1.00164 0.000184119 0)
(1.00227 0.000263711 0)
(1.00252 0.00142322 0)
(1.00333 0.00143416 0)
(1.00412 0.00124255 0)
(1.00453 0.00162174 0)
(1.00474 0.00184582 0)
(1.0048 0.00181238 0)
(1.00511 0.00186239 0)
(1.00594 0.00193033 0)
(1.00704 0.00194214 0)
(1.00801 0.00203475 0)
(1.00894 0.00224418 0)
(1.01005 0.00245239 0)
(1.01136 0.00260241 0)
(1.01255 0.00274594 0)
(1.01327 0.00293834 0)
(1.01322 0.00316175 0)
(0.999996 0.000109473 0)
(1.00036 0.000871544 0)
(1.00154 0.000425685 0)
(1.00233 0.000383183 0)
(1.0026 0.00147376 0)
(1.00329 0.00168329 0)
(1.00411 0.00146741 0)
(1.00459 0.00169743 0)
(1.00477 0.00196313 0)
(1.00481 0.00200114 0)
(1.00512 0.00200737 0)
(1.00595 0.00199649 0)
(1.00706 0.00196804 0)
(1.00807 0.0020081 0)
(1.00903 0.0021643 0)
(1.01013 0.00231772 0)
(1.01143 0.00241436 0)
(1.01262 0.00248908 0)
(1.01338 0.00260658 0)
(1.01334 0.00276858 0)
(1.00001 0.000116212 0)
(1.00032 0.000852692 0)
(1.00144 0.000649683 0)
(1.00237 0.000525827 0)
(1.00269 0.00152327 0)
(1.00327 0.0019082 0)
(1.00409 0.0017275 0)
(1.00463 0.00181292 0)
(1.0048 0.00206957 0)
(1.00481 0.00216915 0)
(1.00511 0.00216938 0)
(1.00593 0.00208187 0)
(1.00705 0.00199479 0)
(1.0081 0.00197049 0)
(1.00908 0.00206845 0)
(1.01018 0.00216684 0)
(1.01145 0.00221483 0)
(1.01265 0.00222436 0)
(1.01344 0.00226761 0)
(1.01343 0.00236227 0)
(1.00001 0.000127765 0)
(1.0003 0.000854225 0)
(1.00135 0.000865557 0)
(1.00239 0.000707894 0)
(1.00278 0.00157533 0)
(1.00326 0.00210857 0)
(1.00403 0.00200073 0)
(1.00464 0.00197305 0)
(1.00483 0.00217248 0)
(1.00481 0.00231715 0)
(1.00507 0.00233249 0)
(1.00587 0.00219604 0)
(1.007 0.00203181 0)
(1.00809 0.00193666 0)
(1.0091 0.00195794 0)
(1.01019 0.00200057 0)
(1.01144 0.00199554 0)
(1.01263 0.00194732 0)
(1.01345 0.00191673 0)
(1.01346 0.00193995 0)
(1.00001 0.00016302 0)
(1.00028 0.000862531 0)
(1.00126 0.00105822 0)
(1.00238 0.000919453 0)
(1.00286 0.00164492 0)
(1.00326 0.00228709 0)
(1.00396 0.00228029 0)
(1.00461 0.00217799 0)
(1.00484 0.0022879 0)
(1.00481 0.00244253 0)
(1.00502 0.00247662 0)
(1.00577 0.00231569 0)
(1.0069 0.00207402 0)
(1.00803 0.00189579 0)
(1.00908 0.00182811 0)
(1.01016 0.00180571 0)
(1.01138 0.00174496 0)
(1.01256 0.00164291 0)
(1.01339 0.00154552 0)
(1.01344 0.00149877 0)
(1.00002 0.000192593 0)
(1.00027 0.000887536 0)
(1.00118 0.00124698 0)
(1.00235 0.00115828 0)
(1.00294 0.00175926 0)
(1.00328 0.00244991 0)
(1.00389 0.00256556 0)
(1.00454 0.00242499 0)
(1.00483 0.00244805 0)
(1.0048 0.00257479 0)
(1.00495 0.0026251 0)
(1.00563 0.0024548 0)
(1.00675 0.00215329 0)
(1.00791 0.00187789 0)
(1.009 0.00171405 0)
(1.01008 0.00160903 0)
(1.01127 0.00148804 0)
(1.01244 0.00132832 0)
(1.01327 0.00116972 0)
(1.01336 0.00105369 0)
(1.00001 0.000239547 0)
(1.00027 0.000902593 0)
(1.00111 0.00142581 0)
(1.00231 0.00142111 0)
(1.00299 0.00190551 0)
(1.0033 0.00260612 0)
(1.00381 0.00284316 0)
(1.00444 0.00270967 0)
(1.00477 0.00265224 0)
(1.00476 0.00272415 0)
(1.00486 0.00277 0)
(1.00547 0.00259529 0)
(1.00654 0.00224658 0)
(1.00772 0.00187327 0)
(1.00884 0.00160094 0)
(1.00993 0.00140045 0)
(1.0111 0.00120736 0)
(1.01224 0.000984899 0)
(1.01308 0.000763238 0)
(1.0132 0.000580184 0)
(1.00001 0.000295107 0)
(1.00027 0.000933759 0)
(1.00106 0.00158892 0)
(1.00225 0.00169638 0)
(1.00302 0.00208468 0)
(1.00333 0.00276593 0)
(1.00373 0.00311 0)
(1.00431 0.0030142 0)
(1.00467 0.00289245 0)
(1.00469 0.00289044 0)
(1.00475 0.0029087 0)
(1.00526 0.00272675 0)
(1.00626 0.00233943 0)
(1.00744 0.00187784 0)
(1.0086 0.00149156 0)
(1.00971 0.00118068 0)
(1.01086 0.000903042 0)
(1.01198 0.000607154 0)
(1.01282 0.000318964 0)
(1.01296 6.73738e-05 0)
(1.00001 0.000339157 0)
(1.00028 0.0010068 0)
(1.00102 0.00175336 0)
(1.00218 0.0019772 0)
(1.00303 0.00230819 0)
(1.00335 0.00294213 0)
(1.00366 0.00337673 0)
(1.00416 0.0033442 0)
(1.00453 0.00318291 0)
(1.00458 0.00310711 0)
(1.0046 0.00307693 0)
(1.00502 0.00287997 0)
(1.00593 0.00245729 0)
(1.00708 0.00191557 0)
(1.00825 0.00140526 0)
(1.00938 0.000971256 0)
(1.01053 0.000581126 0)
(1.01162 0.000199381 0)
(1.01246 -0.000168669 0)
(1.01263 -0.000502178 0)
(1.00001 0.000383436 0)
(1.00028 0.00110649 0)
(1.00099 0.00190494 0)
(1.0021 0.00226202 0)
(1.003 0.00257057 0)
(1.00337 0.00314566 0)
(1.00359 0.00364048 0)
(1.00399 0.0036897 0)
(1.00434 0.00351924 0)
(1.00441 0.00337207 0)
(1.00441 0.00328339 0)