/*--------------------------------*- C++ -*----------------------------------*\
| =========                 |                                                 |
| \\      /  F ield         | OpenFOAM: The Open Source CFD Toolbox           |
|  \\    /   O peration     | Version:  v2012                                 |
|   \\  /    A nd           | Website:  www.openfoam.com                      |
|    \\/     M anipulation  |                                                 |
\*---------------------------------------------------------------------------*/
FoamFile
{
    version     2.0;
    format      ascii;
    class       surfaceScalarField;
    location    "0.45";
    object      phi;
}
// * * * * * * * * * * * * * * * * * * * * * * * * * * * * * * * * * * * * * //

dimensions      [0 3 -1 0 0 0 0];
oriented        oriented;


internalField   nonuniform List<scalar> 
34900
(
1.17494e-06
-8.44052e-08
1.16663e-06
5.72546e-08
1.17626e-06
-7.78363e-08
1.16704e-06
4.30312e-08
1.17276e-06
7.13123e-09
1.16025e-06
4.59163e-08
1.16664e-06
1.05859e-08
1.15682e-06
-2.02681e-08
1.16651e-06
-1.23798e-08
1.15924e-06
-5.06688e-08
1.16992e-06
1.40175e-08
1.16245e-06
-2.04184e-08
1.17241e-06
5.32867e-08
1.16312e-06
9.90355e-09
1.17198e-06
7.36146e-08
1.16027e-06
2.12967e-08
1.168e-06
8.20124e-08
1.15461e-06
2.50331e-08
1.15694e-06
9.4401e-08
3.32467e-08
1.12083e-06
1.23034e-06
-9.04817e-08
1.22407e-06
6.35205e-08
1.23271e-06
-8.64788e-08
1.22567e-06
5.00772e-08
1.22936e-06
3.44238e-09
1.21965e-06
5.56198e-08
1.22282e-06
7.41959e-09
1.21614e-06
-1.35858e-08
1.22192e-06
-1.81658e-08
1.21894e-06
-4.76888e-08
1.2243e-06
8.65821e-09
1.22356e-06
-1.96727e-08
1.22532e-06
5.15256e-08
1.22656e-06
8.65752e-09
1.22276e-06
7.74142e-08
1.22706e-06
1.69987e-08
1.2155e-06
9.35767e-08
1.22481e-06
1.57202e-08
1.20003e-06
1.19183e-07
2.85081e-08
1.20477e-06
1.28688e-06
-9.45797e-08
1.28546e-06
6.49433e-08
1.29081e-06
-9.18334e-08
1.28902e-06
5.18725e-08
1.28812e-06
4.33997e-09
1.28416e-06
5.95842e-08
1.28135e-06
1.02305e-08
1.28053e-06
-1.27678e-08
1.27958e-06
-1.72152e-08
1.28308e-06
-5.11899e-08
1.28124e-06
1.05003e-08
1.28768e-06
-2.61169e-08
1.28244e-06
5.67673e-08
1.2902e-06
8.91767e-10
1.28148e-06
8.61329e-08
1.28881e-06
9.67549e-09
1.27816e-06
1.04221e-07
1.28229e-06
1.15995e-08
1.27066e-06
1.30808e-07
4.18126e-08
1.25736e-06
1.34512e-06
-9.55967e-08
1.34911e-06
6.09552e-08
1.35034e-06
-9.30666e-08
1.35416e-06
4.80532e-08
1.34886e-06
9.63644e-09
1.35016e-06
5.82924e-08
1.34242e-06
1.7968e-08
1.34568e-06
-1.60274e-08
1.34023e-06
-1.17638e-08
1.34672e-06
-5.76878e-08
1.34222e-06
1.50043e-08
1.34994e-06
-3.38391e-08
1.34505e-06
6.16629e-08
1.35142e-06
-5.4766e-09
1.34648e-06
9.10666e-08
1.34952e-06
6.6404e-09
1.34542e-06
1.0832e-07
1.34321e-06
1.38078e-08
1.33897e-06
1.35045e-07
5.894e-08
1.32185e-06
1.40607e-06
-9.33123e-08
1.41397e-06
5.30531e-08
1.41173e-06
-9.0829e-08
1.41926e-06
4.05309e-08
1.41182e-06
1.70735e-08
1.41575e-06
5.43621e-08
1.40638e-06
2.7337e-08
1.4103e-06
-1.99444e-08
1.40414e-06
-5.60515e-09
1.40977e-06
-6.33157e-08
1.40654e-06
1.82265e-08
1.41215e-06
-3.94482e-08
1.41039e-06
6.34234e-08
1.414e-06
-9.08537e-09
1.41277e-06
9.23019e-08
1.41325e-06
6.15819e-09
1.41211e-06
1.09458e-07
1.40784e-06
1.80761e-08
1.40575e-06
1.3714e-07
7.58411e-08
1.38885e-06
1.47098e-06
-8.86185e-08
1.48014e-06
4.38991e-08
1.4761e-06
-8.67942e-08
1.48453e-06
3.21006e-08
1.47768e-06
2.39273e-08
1.4817e-06
5.03401e-08
1.47355e-06
3.54857e-08
1.47601e-06
-2.24026e-08
1.47112e-06
-7.19386e-10
1.47453e-06
-6.67208e-08
1.47314e-06
1.96202e-08
1.47663e-06
-4.29424e-08
1.47695e-06
6.3103e-08
1.47914e-06
-1.12739e-08
1.47963e-06
9.18125e-08
1.47929e-06
6.49743e-09
1.47949e-06
1.0926e-07
1.47421e-06
2.33574e-08
1.47377e-06
1.37572e-07
9.24587e-08
1.45716e-06
1.54067e-06
-8.30688e-08
1.54869e-06
3.58793e-08
1.54448e-06
-8.25829e-08
1.55173e-06
2.4845e-08
1.547e-06
2.86584e-08
1.55002e-06
4.73226e-08
1.54407e-06
4.14359e-08
1.54488e-06
-2.32125e-08
1.54121e-06
2.95139e-09
1.54277e-06
-6.8289e-08
1.54216e-06
2.02298e-08
1.54435e-06
-4.51252e-08
1.54541e-06
6.20444e-08
1.54695e-06
-1.282e-08
1.5483e-06
9.04626e-08
1.54747e-06
7.33302e-09
1.54882e-06
1.07903e-07
1.54258e-06
2.96058e-08
1.54369e-06
1.36454e-07
1.08423e-07
1.52773e-06
1.61511e-06
-7.80541e-08
1.62085e-06
3.0141e-08
1.61727e-06
-7.89995e-08
1.62263e-06
1.94836e-08
1.62005e-06
3.12383e-08
1.62223e-06
4.51444e-08
1.61812e-06
4.55487e-08
1.61799e-06
-2.30868e-08
1.61488e-06
6.0652e-09
1.61528e-06
-6.86956e-08
1.61462e-06
2.08919e-08
1.61589e-06
-4.6398e-08
1.61706e-06
6.08801e-08
1.61803e-06
-1.37967e-08
1.62e-06
8.84963e-08
1.61855e-06
8.78854e-09
1.62101e-06
1.05442e-07
1.61385e-06
3.67594e-08
1.61615e-06
1.3416e-07
1.2322e-07
1.60135e-06
1.69376e-06
-7.42405e-08
1.69733e-06
2.65747e-08
1.69438e-06
-7.6048e-08
1.69813e-06
1.5727e-08
1.69696e-06
3.24136e-08
1.69886e-06
4.32421e-08
1.69593e-06
4.84809e-08
1.69555e-06
-2.27063e-08
1.69262e-06
8.99606e-09
1.69231e-06
-6.83902e-08
1.69134e-06
2.18667e-08
1.6918e-06
-4.68618e-08
1.6929e-06
5.97818e-08
1.69316e-06
-1.40634e-08
1.69566e-06
8.59975e-08
1.69341e-06
1.10389e-08
1.69684e-06
1.02014e-07
1.6889e-06
4.46998e-08
1.6919e-06
1.31159e-07
1.36427e-07
1.67869e-06
1.77606e-06
-7.15826e-08
1.77822e-06
2.44233e-08
1.77556e-06
-7.33934e-08
1.77833e-06
1.29609e-08
1.7778e-06
3.29425e-08
1.77981e-06
4.12316e-08
1.7776e-06
5.06891e-08
1.77734e-06
-2.24446e-08
1.77456e-06
1.17721e-08
1.77383e-06
-6.76537e-08
1.77264e-06
2.30495e-08
1.77236e-06
-4.65753e-08
1.77345e-06
5.86871e-08
1.77288e-06
-1.34906e-08
1.7759e-06
8.29784e-08
1.77272e-06
1.4213e-08
1.77691e-06
9.78232e-08
1.76838e-06
5.32351e-08
1.77156e-06
1.27975e-07
1.47711e-07
1.76028e-06
1.86185e-06
-6.96876e-08
1.86337e-06
2.29087e-08
1.86072e-06
-7.07411e-08
1.86299e-06
1.06848e-08
1.86263e-06
3.33022e-08
1.86486e-06
3.90078e-08
1.86312e-06
5.24223e-08
1.86311e-06
-2.24351e-08
1.86061e-06
1.42789e-08
1.85964e-06
-6.66848e-08
1.8585e-06
2.41889e-08
1.85755e-06
-4.5631e-08
1.85883e-06
5.74083e-08
1.85736e-06
-1.20206e-08
1.86093e-06
7.94068e-08
1.85681e-06
1.83355e-08
1.8615e-06
9.31338e-08
1.85266e-06
6.20729e-08
1.85549e-06
1.25151e-07
1.5683e-07
1.84637e-06
1.95131e-06
-6.81567e-08
1.95269e-06
2.15264e-08
1.9499e-06
-6.79481e-08
1.95197e-06
8.61014e-09
1.95155e-06
3.37237e-08
1.95394e-06
3.66229e-08
1.95253e-06
5.3833e-08
1.95276e-06
-2.26738e-08
1.95063e-06
1.64087e-08
1.94955e-06
-6.56021e-08
1.94872e-06
2.50221e-08
1.94721e-06
-4.41231e-08
1.9489e-06
5.57145e-08
1.94655e-06
-9.6692e-09
1.95071e-06
7.52507e-08
1.94575e-06
2.32957e-08
1.95062e-06
8.82669e-08
1.94185e-06
7.08345e-08
1.94386e-06
1.23148e-07
1.63688e-07
1.937e-06
2.04476e-06
-6.67287e-08
2.04625e-06
2.004e-08
2.04327e-06
-6.49737e-08
2.04529e-06
6.59366e-09
2.04471e-06
3.42983e-08
2.04717e-06
3.41646e-08
2.04597e-06
5.50318e-08
2.04638e-06
-2.30815e-08
2.04468e-06
1.81078e-08
2.04351e-06
-6.44269e-08
2.04319e-06
2.5343e-08
2.04117e-06
-4.21051e-08
2.04348e-06
5.34067e-08
2.04032e-06
-6.51131e-09
2.04504e-06
7.0531e-08
2.03948e-06
2.88535e-08
2.04417e-06
8.35821e-08
2.03589e-06
7.91078e-08
2.03677e-06
1.22272e-07
1.68366e-07
2.03209e-06
2.14255e-06
-6.52747e-08
2.14422e-06
1.83691e-08
2.14106e-06
-6.18137e-08
2.14309e-06
4.562e-09
2.14234e-06
3.5046e-08
2.14481e-06
3.17005e-08
2.14375e-06
5.60893e-08
2.14421e-06
-2.35427e-08
2.14296e-06
1.93615e-08
2.14162e-06
-6.30911e-08
2.14194e-06
2.50194e-08
2.13942e-06
-3.95768e-08
2.14246e-06
5.03637e-08
2.13861e-06
-2.66557e-09
2.14379e-06
6.53569e-08
2.13797e-06
3.46751e-08
2.1421e-06
7.94472e-08
2.13469e-06
8.6518e-08
2.13433e-06
1.22633e-07
1.71117e-07
2.13158e-06
2.24496e-06
-6.37442e-08
2.24683e-06
1.64983e-08
2.24348e-06
-5.84691e-08
2.24557e-06
2.47605e-09
2.24467e-06
3.59459e-08
2.2471e-06
2.92724e-08
2.24616e-06
5.70258e-08
2.24655e-06
-2.39295e-08
2.24575e-06
2.01598e-08
2.24413e-06
-6.14712e-08
2.24517e-06
2.39793e-08
2.2421e-06
-3.65086e-08
2.2459e-06
4.65646e-08
2.24154e-06
1.70005e-09
2.24696e-06
5.99365e-08
2.24124e-06
4.03887e-08
2.24449e-06
7.61957e-08
2.23823e-06
9.2787e-08
2.2367e-06
1.2416e-07
1.72323e-07
2.23549e-06
2.35225e-06
-6.21223e-08
2.35432e-06
1.44352e-08
2.35079e-06
-5.49434e-08
2.35294e-06
3.23277e-10
2.35194e-06
3.69505e-08
2.3543e-06
2.69149e-08
2.35351e-06
5.78107e-08
2.3537e-06
-2.41132e-08
2.35338e-06
2.0473e-08
2.35134e-06
-5.94287e-08
2.35313e-06
2.21934e-08
2.3495e-06
-3.28823e-08
2.35398e-06
4.20885e-08
2.34931e-06
6.36565e-09
2.35469e-06
5.45549e-08
2.34944e-06
4.56434e-08
2.35156e-06
7.40758e-08
2.34656e-06
9.77809e-08
2.3441e-06
1.26622e-07
1.72438e-07
2.34399e-06
2.46468e-06
-6.04083e-08
2.46692e-06
1.22007e-08
2.46322e-06
-5.12516e-08
2.46543e-06
-1.88091e-09
2.46439e-06
3.79903e-08
2.46663e-06
2.46742e-08
2.46607e-06
5.83712e-08
2.46592e-06
-2.39674e-08
2.46615e-06
2.02495e-08
2.46356e-06
-5.68452e-08
2.46608e-06
1.96719e-08
2.46194e-06
-2.87338e-08
2.46692e-06
3.71085e-08
2.46222e-06
1.10581e-08
2.46724e-06
4.95344e-08
2.46273e-06
5.01582e-08
2.4636e-06
7.32039e-08
2.45984e-06
1.01546e-07
2.4568e-06
1.2966e-07
1.71923e-07
2.45731e-06
2.58249e-06
-5.86079e-08
2.58486e-06
9.82996e-09
2.58104e-06
-4.74282e-08
2.58325e-06
-4.09174e-09
2.58227e-06
3.89751e-08
2.58432e-06
2.26188e-08
2.58409e-06
5.86064e-08
2.58349e-06
-2.33713e-08
2.58431e-06
1.94299e-08
2.58111e-06
-5.36466e-08
2.58431e-06
1.64717e-08
2.57975e-06
-2.41744e-08
2.58499e-06
3.18714e-08
2.58057e-06
1.5478e-08
2.58492e-06
4.51823e-08
2.58133e-06
5.37526e-08
2.58102e-06
7.35112e-08
2.57824e-06
1.04321e-07
2.57506e-06
1.3285e-07
1.7118e-07
2.5758e-06
2.70595e-06
-5.67307e-08
2.70841e-06
7.37595e-09
2.70451e-06
-4.35344e-08
2.70666e-06
-6.23605e-09
2.70584e-06
3.97955e-08
2.70761e-06
2.08401e-08
2.70782e-06
5.84021e-08
2.70667e-06
-2.22182e-08
2.70813e-06
1.79705e-08
2.7043e-06
-4.9822e-08
2.70806e-06
1.27127e-08
2.70328e-06
-1.93979e-08
2.70848e-06
2.6672e-08
2.70462e-06
1.93377e-08
2.70806e-06
4.17428e-08
2.70545e-06
5.63695e-08
2.70416e-06
7.47938e-08
2.70205e-06
1.06432e-07
2.6991e-06
1.35806e-07
1.70485e-07
2.69979e-06
2.83533e-06
-5.479e-08
2.83779e-06
4.911e-09
2.83392e-06
-3.96608e-08
2.8359e-06
-8.21528e-09
2.83537e-06
4.03258e-08
2.83676e-06
1.94436e-08
2.83752e-06
5.76489e-08
2.83573e-06
-2.0431e-08
2.83783e-06
1.58692e-08
2.83345e-06
-4.54377e-08
2.83758e-06
8.58203e-09
2.83284e-06
-1.46598e-08
2.83769e-06
2.18201e-08
2.83463e-06
2.24004e-08
2.83701e-06
3.93592e-08
2.83529e-06
5.8094e-08
2.83332e-06
7.67616e-08
2.83157e-06
1.08185e-07
2.82911e-06
1.38259e-07
1.69948e-07
2.82965e-06
2.97091e-06
-5.28012e-08
2.97329e-06
2.52803e-09
2.96956e-06
-3.5928e-08
2.97125e-06
-9.911e-09
2.97115e-06
4.04316e-08
2.97205e-06
1.85358e-08
2.97344e-06
5.62612e-08
2.97099e-06
-1.79821e-08
2.97367e-06
1.3192e-08
2.96888e-06
-4.06484e-08
2.97313e-06
4.32908e-09
2.96872e-06
-1.02468e-08
2.97293e-06
1.76101e-08
2.97082e-06
2.45156e-08
2.97212e-06
3.8053e-08
2.97108e-06
5.91412e-08
2.96875e-06
7.90917e-08
2.96712e-06
1.09811e-07
2.96529e-06
1.40088e-07
1.6953e-07
2.96571e-06
3.11299e-06
-5.07824e-08
3.11518e-06
3.39195e-10
3.11173e-06
-3.24822e-08
3.11302e-06
-1.11957e-08
3.11346e-06
3.99839e-08
3.1138e-06
1.82032e-08
3.11586e-06
5.42005e-08
3.11279e-06
-1.49138e-08
3.1159e-06
1.00846e-08
3.11093e-06
-3.56826e-08
3.11502e-06
2.38964e-10
3.11121e-06
-6.43822e-09
3.11454e-06
1.42846e-08
3.11339e-06
2.56604e-08
3.11373e-06
3.77127e-08
3.11306e-06
5.98148e-08
3.11066e-06
8.14945e-08
3.10903e-06
1.11437e-07
3.10782e-06
1.41303e-07
1.69109e-07
3.10824e-06
3.26188e-06
-4.87521e-08
3.26375e-06
-1.52869e-09
3.26075e-06
-2.94861e-08
3.2615e-06
-1.19462e-08
3.26261e-06
3.8877e-08
3.26232e-06
1.84884e-08
3.26502e-06
5.15e-08
3.26147e-06
-1.13575e-08
3.26478e-06
6.77611e-09
3.25991e-06
-3.08209e-08
3.26355e-06
-3.39789e-09
3.26057e-06
-3.4556e-09
3.26288e-06
1.19747e-08
3.26256e-06
2.59806e-08
3.26216e-06
3.81104e-08
3.26153e-06
6.04429e-08
3.25926e-06
8.37704e-08
3.25761e-06
1.13081e-07
3.25691e-06
1.42003e-07
1.68537e-07
3.25748e-06
3.41791e-06
-4.67286e-08
3.41932e-06
-2.94124e-09
3.41694e-06
-2.71045e-08
3.41706e-06
-1.20641e-08
3.41888e-06
3.70536e-08
3.41801e-06
1.93631e-08
3.42123e-06
4.82797e-08
3.41739e-06
-7.52647e-09
3.42063e-06
3.54469e-09
3.41615e-06
-2.63469e-08
3.41908e-06
-6.32751e-09
3.41703e-06
-1.40226e-09
3.41835e-06
1.06545e-08
3.41854e-06
2.57927e-08
3.41767e-06
3.89742e-08
3.41684e-06
6.12796e-08
3.41476e-06
8.58429e-08
3.41317e-06
1.14678e-07
3.41284e-06
1.42325e-07
1.67707e-07
3.41367e-06
3.58141e-06
-4.47279e-08
3.58224e-06
-3.76986e-09
3.58061e-06
-2.54799e-08
3.58005e-06
-1.14988e-08
3.58257e-06
3.45313e-08
3.58123e-06
2.07013e-08
3.58475e-06
4.47584e-08
3.58093e-06
-3.69973e-09
3.58379e-06
6.79918e-10
3.57994e-06
-2.24937e-08
3.582e-06
-8.39196e-09
3.58083e-06
-2.25223e-10
3.58132e-06
1.01581e-08
3.5816e-06
2.55141e-08
3.5805e-06
4.0072e-08
3.57932e-06
6.24625e-08
3.57743e-06
8.77336e-08
3.57597e-06
1.16134e-07
3.57592e-06
1.42384e-07
1.66568e-07
3.57705e-06
3.75274e-06
-4.27616e-08
3.75288e-06
-3.91283e-09
3.7521e-06
-2.4699e-08
3.75088e-06
-1.02752e-08
3.75398e-06
3.14245e-08
3.75241e-06
2.22718e-08
3.75594e-06
4.12306e-08
3.75242e-06
-1.80764e-10
3.75466e-06
-1.56076e-09
3.75155e-06
-1.93753e-08
3.75276e-06
-9.60461e-09
3.75222e-06
3.13892e-10
3.75214e-06
1.02346e-08
3.75212e-06
2.55394e-08
3.75089e-06
4.13003e-08
3.74934e-06
6.40069e-08
3.74757e-06
8.95098e-08
3.74634e-06
1.17365e-07
3.74648e-06
1.42236e-07
1.65121e-07
3.74793e-06
3.93226e-06
-4.08334e-08
3.93166e-06
-3.31028e-09
3.93172e-06
-2.47638e-08
3.92997e-06
-8.51849e-09
3.93343e-06
2.7955e-08
3.93196e-06
2.37501e-08
3.93516e-06
3.80272e-08
3.93223e-06
2.75375e-09
3.93368e-06
-3.02013e-09
3.93126e-06
-1.69542e-08
3.93175e-06
-1.00935e-08
3.93152e-06
5.50193e-10
3.93109e-06
1.06646e-08
3.9305e-06
2.61233e-08
3.92909e-06
4.27114e-08
3.92727e-06
6.58312e-08
3.92553e-06
9.1242e-08
3.92459e-06
1.18312e-07
3.92493e-06
1.41891e-07
1.63376e-07
3.92668e-06
4.12035e-06
-3.8937e-08
4.119e-06
-1.95803e-09
4.1198e-06
-2.55668e-08
4.11776e-06
-6.47075e-09
4.12127e-06
2.44424e-08
4.12027e-06
2.4752e-08
4.12283e-06
3.54697e-08
4.12064e-06
4.93963e-09
4.12134e-06
-3.71798e-09
4.11943e-06
-1.50422e-08
4.11938e-06
-1.00454e-08
4.1191e-06
8.22416e-10
4.11841e-06
1.13631e-08
4.11721e-06
2.73224e-08
4.11546e-06
4.44631e-08
4.11346e-06
6.78243e-08
4.11174e-06
9.2962e-08
4.11111e-06
1.18943e-07
4.11166e-06
1.4134e-07
1.61326e-07
4.11371e-06
4.31742e-06
-3.70528e-08
4.31538e-06
7.56897e-11
4.31668e-06
-2.68674e-08
4.31471e-06
-4.49323e-09
4.31788e-06
2.12714e-08
4.31772e-06
2.49088e-08
4.31943e-06
3.3757e-08
4.31794e-06
6.43342e-09
4.31809e-06
-3.86298e-09
4.31641e-06
-1.33708e-08
4.31598e-06
-9.60986e-09
4.31542e-06
1.37629e-09
4.3144e-06
1.23889e-08
4.31266e-06
2.90605e-08
4.31043e-06
4.66927e-08
4.30832e-06
6.99381e-08
4.30665e-06
9.46301e-08
4.30633e-06
1.19258e-07
4.30711e-06
1.40567e-07
1.58953e-07
4.30948e-06
4.52387e-06
-3.51465e-08
4.5213e-06
2.63978e-09
4.52272e-06
-2.82879e-08
4.52127e-06
-3.0397e-09
4.52372e-06
1.88266e-08
4.52463e-06
2.3994e-08
4.52555e-06
3.2839e-08
4.52448e-06
7.50433e-09
4.52436e-06
-3.74222e-09
4.52268e-06
-1.1699e-08
4.52189e-06
-8.81745e-09
4.52093e-06
2.33591e-09
4.51944e-06
1.38789e-08
4.51729e-06
3.12157e-08
4.51453e-06
4.94478e-08
4.51228e-06
7.21888e-08
4.51074e-06
9.61681e-08
4.51072e-06
1.19284e-07
4.51175e-06
1.39535e-07
1.56251e-07
4.51445e-06
4.74014e-06
-3.31671e-08
4.73728e-06
5.49212e-09
4.73833e-06
-2.93302e-08
4.73789e-06
-2.6053e-09
4.7393e-06
1.74134e-08
4.74129e-06
2.20048e-08
4.74172e-06
3.24153e-08
4.74067e-06
8.54894e-09
4.74053e-06
-3.597e-09
4.73873e-06
-9.89794e-09
4.73748e-06
-7.56731e-09
4.73609e-06
3.72401e-09
4.734e-06
1.59635e-08
4.73148e-06
3.37376e-08
4.72832e-06
5.2611e-08
4.72588e-06
7.46286e-08
4.72452e-06
9.75228e-08
4.72475e-06
1.19061e-07
4.72611e-06
1.38174e-07
1.53233e-07
4.72913e-06
4.96668e-06
-3.10522e-08
4.96387e-06
8.30945e-09
4.96396e-06
-2.94285e-08
4.965e-06
-3.64214e-09
4.96526e-06
1.71514e-08
4.96805e-06
1.92139e-08
4.96847e-06
3.2e-08
4.96702e-06
9.99374e-09
4.96696e-06
-3.53582e-09
4.96503e-06
-7.96742e-09
4.9632e-06
-5.73078e-09
4.96133e-06
5.59308e-09
4.95862e-06
1.86667e-08
4.9557e-06
3.66597e-08
4.95233e-06
5.59842e-08
4.94969e-06
7.7262e-08
4.94851e-06
9.8704e-08
4.94895e-06
1.18622e-07
4.95071e-06
1.36415e-07
1.49902e-07
4.95404e-06
5.20399e-06
-2.87299e-08
5.2016e-06
1.06989e-08
5.2002e-06
-2.80254e-08
5.20298e-06
-6.41817e-09
5.20225e-06
1.78784e-08
5.2053e-06
1.61675e-08
5.20626e-06
3.10334e-08
5.20416e-06
1.20979e-08
5.20399e-06
-3.37006e-09
5.20211e-06
-6.08864e-09
5.19956e-06
-3.17288e-09
5.1971e-06
8.05162e-09
5.19386e-06
2.19064e-08
5.19051e-06
4.00095e-08
5.18706e-06
5.94293e-08
5.18434e-06
7.99897e-08
5.18327e-06
9.97691e-08
5.1839e-06
1.17993e-07
5.18607e-06
1.34242e-07
1.46226e-07
5.18975e-06
5.45259e-06
-2.61294e-08
5.45105e-06
1.22326e-08
5.44769e-06
-2.46631e-08
5.45215e-06
-1.08731e-08
5.45093e-06
1.90946e-08
5.45352e-06
1.35829e-08
5.45547e-06
2.90752e-08
5.45275e-06
1.4821e-08
5.45205e-06
-2.67118e-09
5.45038e-06
-4.41389e-09
5.44713e-06
7.26573e-11
5.4439e-06
1.12816e-08
5.44024e-06
2.55634e-08
5.43654e-06
4.37169e-08
5.43305e-06
6.29193e-08
5.43039e-06
8.26493e-08
5.42939e-06
1.00767e-07
5.43019e-06
1.17189e-07
5.43275e-06
1.31689e-07
1.42173e-07
5.4368e-06
5.71302e-06
-2.31915e-08
5.71277e-06
1.24825e-08
5.70718e-06
-1.9068e-08
5.71284e-06
-1.65372e-08
5.7119e-06
2.00375e-08
5.71337e-06
1.21125e-08
5.71643e-06
2.60075e-08
5.71344e-06
1.78142e-08
5.71174e-06
-9.64948e-10
5.71024e-06
-2.91623e-09
5.70647e-06
3.83831e-09
5.70245e-06
1.52998e-08
5.69831e-06
2.97023e-08
5.69436e-06
4.76737e-08
5.6909e-06
6.63744e-08
5.68841e-06
8.51417e-08
5.68748e-06
1.01695e-07
5.68846e-06
1.16217e-07
5.69134e-06
1.28809e-07
1.37743e-07
5.69577e-06
5.98588e-06
-1.98802e-08
5.98727e-06
1.1097e-08
5.97947e-06
-1.12722e-08
5.98543e-06
-2.2495e-08
5.98566e-06
1.98029e-08
5.98563e-06
1.2143e-08
5.98949e-06
2.21505e-08
5.98679e-06
2.05171e-08
5.98377e-06
2.05454e-09
5.98214e-06
-1.29274e-09
5.97821e-06
7.76905e-09
5.97341e-06
2.00996e-08
5.96868e-06
3.4432e-08
5.96461e-06
5.17466e-08
5.96124e-06
6.97429e-08
5.95897e-06
8.74093e-08
5.9582e-06
1.02468e-07
5.95932e-06
1.151e-07
5.96247e-06
1.25658e-07
1.32969e-07
5.96724e-06
6.27181e-06
-1.61969e-08
6.27498e-06
7.91808e-09
6.26539e-06
-1.67674e-09
6.27044e-06
-2.75463e-08
6.27266e-06
1.75804e-08
6.27116e-06
1.36408e-08
6.27513e-06
1.81878e-08
6.27321e-06
2.24322e-08
6.26891e-06
6.35492e-09
6.26664e-06
9.819e-10
6.26282e-06
1.15826e-08
6.25745e-06
2.54716e-08
6.25217e-06
3.97153e-08
6.24792e-06
5.59995e-08
6.24468e-06
7.29799e-08
6.24271e-06
8.93759e-08
6.24218e-06
1.03003e-07
6.24344e-06
1.13838e-07
6.24679e-06
1.22304e-07
1.27915e-07
6.25185e-06
6.57146e-06
-1.21906e-08
6.57632e-06
3.06112e-09
6.56575e-06
8.8941e-09
6.56854e-06
-3.03362e-08
6.57331e-06
1.28101e-08
6.57078e-06
1.6169e-08
6.57397e-06
1.50011e-08
6.5732e-06
2.31989e-08
6.56792e-06
1.16356e-08
6.56439e-06
4.50906e-09
6.56086e-06
1.51202e-08
6.55522e-06
3.111e-08
6.54953e-06
4.53984e-08
6.54497e-06
6.05667e-08
6.54188e-06
7.60644e-08
6.54027e-06
9.09911e-08
6.54005e-06
1.03216e-07
6.54149e-06
1.12399e-07
6.54497e-06
1.18823e-07
1.22662e-07
6.55023e-06
6.88556e-06
-7.96071e-09
6.89172e-06
-3.0945e-09
6.88127e-06
1.93416e-08
6.88065e-06
-2.97194e-08
6.88792e-06
5.54443e-09
6.88523e-06
1.88517e-08
6.88681e-06
1.34259e-08
6.88722e-06
2.279e-08
6.88152e-06
1.73325e-08
6.87642e-06
9.60619e-09
6.87276e-06
1.87859e-08
6.86748e-06
3.63867e-08
6.86143e-06
5.14508e-08
6.8566e-06
6.53933e-08
6.85356e-06
7.91082e-08
6.8523e-06
9.22553e-08
6.85249e-06
1.03018e-07
6.85416e-06
1.1073e-07
6.85772e-06
1.15269e-07
1.17291e-07
6.86309e-06
7.21483e-06
-3.65463e-09
7.2217e-06
-9.96423e-09
7.21255e-06
2.84868e-08
7.20791e-06
-2.50724e-08
7.21685e-06
-3.39572e-09
7.2151e-06
2.06033e-08
7.2146e-06
1.39271e-08
7.21569e-06
2.16973e-08
7.21032e-06
2.27021e-08
7.2037e-06
1.62247e-08
7.19945e-06
2.30383e-08
7.19465e-06
4.11824e-08
7.18866e-06
5.74438e-08
7.18367e-06
7.03843e-08
7.18052e-06
8.22563e-08
7.17953e-06
9.32497e-08
7.18017e-06
1.02374e-07
7.18215e-06
1.08746e-07
7.18575e-06
1.11673e-07
1.11899e-07
7.19114e-06
7.56002e-06
5.50183e-10
7.56692e-06
-1.68676e-08
7.56014e-06
3.52667e-08
7.55152e-06
-1.64443e-08
7.56057e-06
-1.24473e-08
7.56093e-06
2.02388e-08
7.55833e-06
1.65275e-08
7.55929e-06
2.074e-08
7.5547e-06
2.72922e-08
7.54721e-06
2.37187e-08
7.54176e-06
2.84849e-08
7.53741e-06
4.55355e-08
7.53197e-06
6.28784e-08
7.52691e-06
7.54457e-08
7.52366e-06
8.55034e-08
7.52276e-06
9.41508e-08
7.52378e-06
1.01353e-07
7.5262e-06
1.06327e-07
7.52993e-06
1.07949e-07
1.06578e-07
7.53525e-06
7.9219e-06
4.46254e-09
7.92814e-06
-2.31133e-08
7.92448e-06
3.89331e-08
7.9125e-06
-4.46359e-09
7.92004e-06
-1.99929e-08
7.92307e-06
1.72102e-08
7.91902e-06
2.05824e-08
7.9189e-06
2.08563e-08
7.91541e-06
3.07805e-08
7.90752e-06
3.161e-08
7.90083e-06
3.51772e-08
7.89658e-06
4.97831e-08
7.89195e-06
6.75053e-08
7.88713e-06
8.02719e-08
7.88387e-06
8.87589e-08
7.88291e-06
9.51139e-08
7.88416e-06
1.00107e-07
7.88706e-06
1.03419e-07
7.89106e-06
1.03958e-07
1.01333e-07
7.8963e-06
8.30125e-06
7.88908e-09
8.30619e-06
-2.80499e-08
8.30594e-06
3.91852e-08
8.29186e-06
9.61301e-09
8.29626e-06
-2.43918e-08
8.30197e-06
1.14974e-08
8.29747e-06
2.50916e-08
8.29557e-06
2.27546e-08
8.29309e-06
3.32606e-08
8.28536e-06
3.93347e-08
8.27771e-06
4.28272e-08
8.27309e-06
5.44005e-08
8.26927e-06
7.13297e-08
8.26511e-06
8.44329e-08
8.26198e-06
9.18875e-08
8.26093e-06
9.61667e-08
8.26223e-06
9.88048e-08
8.26553e-06
1.00119e-07
8.26992e-06
9.9565e-08
9.61025e-08
8.27515e-06
8.69889e-06
1.06603e-08
8.702e-06
-3.11615e-08
8.70501e-06
3.61817e-08
8.69046e-06
2.41578e-08
8.69044e-06
-2.43729e-08
8.69804e-06
3.90172e-09
8.69439e-06
2.87389e-08
8.6906e-06
2.6545e-08
8.68819e-06
3.56679e-08
8.6815e-06
4.60309e-08
8.67327e-06
5.10541e-08
8.66794e-06
5.97346e-08
8.66472e-06
7.45448e-08
8.6616e-06
8.75571e-08
8.65876e-06
9.47282e-08
8.65777e-06
9.71565e-08
8.659e-06
9.75726e-08
8.66245e-06
9.66629e-08
8.66725e-06
9.47714e-08
9.07206e-08
8.67263e-06
9.11563e-06
1.26519e-08
9.11659e-06
-3.21282e-08
9.12243e-06
3.03499e-08
9.10875e-06
3.78295e-08
9.10421e-06
-1.98316e-08
9.11211e-06
-3.99044e-09
9.11041e-06
3.04321e-08
9.10489e-06
3.20641e-08
9.10205e-06
3.85104e-08
9.09656e-06
5.15235e-08
9.08834e-06
5.92762e-08
9.08222e-06
6.58483e-08
9.07924e-06
7.75291e-08
9.07728e-06
8.9513e-08
9.07515e-06
9.68623e-08
9.07427e-06
9.8034e-08
9.07543e-06
9.64113e-08
9.07879e-06
9.33093e-08
9.08373e-06
8.98289e-08
8.50578e-08
9.08939e-06
9.55232e-06
1.3791e-08
9.55106e-06
-3.08636e-08
9.55893e-06
2.24775e-08
9.54745e-06
4.93091e-08
9.53882e-06
-1.11978e-08
9.54537e-06
-1.05408e-08
9.546e-06
2.97978e-08
9.53958e-06
3.84797e-08
9.5358e-06
4.22995e-08
9.53136e-06
5.59614e-08
9.52378e-06
6.68509e-08
9.51711e-06
7.2518e-08
9.51393e-06
8.07167e-08
9.51284e-06
9.05987e-08
9.51199e-06
9.77117e-08
9.51138e-06
9.86462e-08
9.51249e-06
9.53019e-08
9.51559e-06
9.02114e-08
9.52049e-06
8.49283e-08
7.92402e-08
9.5263e-06
1.00099e-05
1.40599e-08
1.00065e-05
-2.74599e-08
1.00155e-05
1.3399e-08
1.00071e-05
5.77396e-08
9.99523e-06
6.84324e-10
9.99926e-06
-1.45719e-08
1.00018e-05
2.72219e-08
9.99554e-06
4.47794e-08
9.99059e-06
4.72441e-08
9.9869e-06
5.96505e-08
9.98049e-06
7.32655e-08
9.97367e-06
7.93315e-08
9.96993e-06
8.44653e-08
9.96935e-06
9.11772e-08
9.96981e-06
9.72489e-08
9.97009e-06
9.8364e-08
9.97118e-06
9.42183e-08
9.97398e-06
8.74026e-08
9.97857e-06
8.03425e-08
7.34294e-08
9.98438e-06
1.04892e-05
1.34923e-08
1.0484e-05
-2.22335e-08
1.04933e-05
4.06857e-09
1.04883e-05
6.27101e-08
1.04744e-05
1.46536e-08
1.04754e-05
-1.55891e-08
1.04789e-05
2.3698e-08
1.04735e-05
5.01548e-08
1.04676e-05
5.31363e-08
1.04644e-05
6.28714e-08
1.04594e-05
7.83042e-08
1.04529e-05
8.58587e-08
1.04486e-05
8.86935e-08
1.0448e-05
9.18299e-08
1.04494e-05
9.57965e-08
1.0451e-05
9.67587e-08
1.04525e-05
9.2705e-08
1.04551e-05
8.4815e-08
1.04592e-05
7.62553e-08
6.79222e-08
1.04647e-05
1.09913e-05
1.2168e-08
1.09848e-05
-1.56735e-08
1.09934e-05
-4.53029e-09
1.09919e-05
6.41473e-08
1.09772e-05
2.94076e-08
1.09749e-05
-1.32965e-08
1.09786e-05
1.99971e-08
1.09745e-05
5.42784e-08
1.09681e-05
5.94888e-08
1.0965e-05
6.59477e-08
1.09615e-05
8.18681e-08
1.09557e-05
9.16223e-08
1.09512e-05
9.32509e-08
1.09501e-05
9.28624e-08
1.0952e-05
9.39158e-08
1.09548e-05
9.39183e-08
1.09573e-05
9.02725e-08
1.09599e-05
8.21787e-08
1.09636e-05
7.25314e-08
6.31035e-08
1.09685e-05
1.15173e-05
1.02149e-08
1.15099e-05
-8.27813e-09
1.15171e-05
-1.16667e-08
1.15189e-05
6.23316e-08
1.15045e-05
4.38214e-08
1.1499e-05
-7.86511e-09
1.15023e-05
1.67379e-08
1.14995e-05
5.70682e-08
1.1493e-05
6.59807e-08
1.14898e-05
6.91118e-08
1.14878e-05
8.38982e-08
1.14833e-05
9.61017e-08
1.14787e-05
9.78499e-08
1.14772e-05
9.4421e-08
1.1479e-05
9.20673e-08
1.14826e-05
9.03483e-08
1.14861e-05
8.67501e-08
1.14891e-05
7.92321e-08
1.14925e-05
6.91046e-08
5.90953e-08
1.14965e-05
1.20682e-05
7.80161e-09
1.20605e-05
-5.9297e-10
1.20656e-05
-1.67464e-08
1.20702e-05
5.77552e-08
1.20572e-05
5.67941e-08
1.20489e-05
5.15942e-10
1.20514e-05
1.41789e-08
1.20499e-05
5.85666e-08
1.20434e-05
7.24906e-08
1.20401e-05
7.24142e-08
1.20394e-05
8.4626e-08
1.20367e-05
9.87844e-08
1.20326e-05
1.0197e-07
1.20304e-05
9.65979e-08
1.20319e-05
9.05648e-08
1.20357e-05
8.65727e-08
1.204e-05
8.23901e-08
1.20437e-05
7.5608e-08
1.20468e-05
6.59797e-08
5.55853e-08
1.20503e-05
1.26453e-05
5.12266e-09
1.26378e-05
6.89694e-09
1.26405e-05
-1.94464e-08
1.26472e-05
5.10214e-08
1.26364e-05
6.76423e-08
1.26256e-05
1.13032e-08
1.26272e-05
1.25187e-08
1.26269e-05
5.88771e-08
1.26207e-05
7.87007e-08
1.2617e-05
7.6175e-08
1.26173e-05
8.43125e-08
1.26169e-05
9.92064e-08
1.26137e-05
1.0511e-07
1.26113e-05
9.90331e-08
1.2612e-05
8.98886e-08
1.26157e-05
8.28266e-08
1.26204e-05
7.77016e-08
1.26248e-05
7.11959e-08
1.26281e-05
6.26495e-08
5.24171e-08
1.26313e-05
1.32496e-05
2.40932e-09
1.32429e-05
1.36703e-08
1.32429e-05
-1.95016e-08
1.32512e-05
4.27033e-08
1.3243e-05
7.58865e-08
1.32305e-05
2.38229e-08
1.32307e-05
1.23352e-08
1.3232e-05
5.75083e-08
1.32265e-05
8.42659e-08
1.32218e-05
8.08338e-08
1.32228e-05
8.33244e-08
1.32246e-05
9.74332e-08
1.32233e-05
1.06416e-07
1.3221e-05
1.01335e-07
1.32208e-05
9.00711e-08
1.3224e-05
7.96108e-08
1.32289e-05
7.28262e-08
1.32338e-05
6.62743e-08
1.32378e-05
5.86621e-08
4.93684e-08
1.32408e-05
1.38827e-05
-9.20223e-11
1.38771e-05
1.92776e-08
1.38745e-05
-1.69067e-08
1.38836e-05
3.35852e-08
1.38785e-05
8.10062e-08
1.38648e-05
3.74846e-08
1.38631e-05
1.40026e-08
1.38662e-05
5.44898e-08
1.38619e-05
8.84698e-08
1.38564e-05
8.63503e-08
1.38572e-05
8.25483e-08
1.38609e-05
9.378e-08
1.38621e-05
1.05163e-07
1.38605e-05
1.02953e-07
1.38599e-05
9.0653e-08
1.38621e-05
7.74541e-08
1.38668e-05
6.80804e-08
1.3872e-05
6.11125e-08
1.38766e-05
5.40529e-08
4.61364e-08
1.38798e-05
1.45457e-05
-2.1512e-09
1.45417e-05
2.33474e-08
1.45366e-05
-1.18957e-08
1.45456e-05
2.46452e-08
1.4544e-05
8.26018e-08
1.453e-05
5.14349e-08
1.4526e-05
1.80551e-08
1.45303e-05
5.01605e-08
1.45284e-05
9.04026e-08
1.45225e-05
9.22295e-08
1.45221e-05
8.29696e-08
1.4527e-05
8.88859e-08
1.45309e-05
1.01225e-07
1.4531e-05
1.029e-07
1.45302e-05
9.13747e-08
1.45316e-05
7.60864e-08
1.45356e-05
6.41175e-08
1.45407e-05
5.60129e-08
1.45452e-05
4.95629e-08
4.25864e-08
1.45487e-05
1.52403e-05
-3.58193e-09
1.5238e-05
2.56281e-08
1.5231e-05
-4.8767e-09
1.52388e-05
1.68511e-08
1.52408e-05
8.06342e-08
1.52276e-05
6.45895e-08
1.52209e-05
2.47464e-08
1.52256e-05
4.54727e-08
1.52269e-05
8.91119e-08
1.52213e-05
9.78118e-08
1.52194e-05
8.49236e-08
1.52244e-05
8.38372e-08
1.52305e-05
9.51201e-08
1.52332e-05
1.00211e-07
1.52327e-05
9.18409e-08
1.52335e-05
7.53281e-08
1.52364e-05
6.1207e-08
1.52412e-05
5.12276e-08
1.52457e-05
4.50825e-08
3.93487e-08
1.52489e-05
1.5968e-05
-4.27359e-09
1.59675e-05
2.61789e-08
1.59593e-05
3.2952e-09
1.59649e-05
1.12176e-08
1.59701e-05
7.55124e-08
1.5959e-05
7.56659e-08
1.59498e-05
3.39078e-08
1.59537e-05
4.16124e-08
1.59582e-05
8.45565e-08
1.59544e-05
1.01691e-07
1.5951e-05
8.83124e-08
1.59549e-05
7.9923e-08
1.59624e-05
8.75642e-08
1.59678e-05
9.48762e-08
1.59688e-05
9.08316e-08
1.59686e-05
7.5494e-08
1.59706e-05
5.92385e-08
1.59741e-05
4.76821e-08
1.59787e-05
4.0496e-08
3.62393e-08
1.59818e-05
1.67305e-05
-4.2098e-09
1.67314e-05
2.52938e-08
1.67231e-05
1.15865e-08
1.67258e-05
8.53513e-09
1.67333e-05
6.79959e-08
1.67254e-05
8.35937e-08
1.67145e-05
4.47801e-08
1.67165e-05
3.96576e-08
1.67233e-05
7.77579e-08
1.67227e-05
1.0224e-07
1.67186e-05
9.24891e-08
1.67204e-05
7.80746e-08
1.67284e-05
7.95506e-08
1.67356e-05
8.76945e-08
1.67391e-05
8.73191e-08
1.67388e-05
7.5845e-08
1.67392e-05
5.87731e-08
1.67415e-05
4.5432e-08
1.67448e-05
3.71455e-08
3.27834e-08
1.67483e-05
1.75296e-05
-3.45512e-09
1.75316e-05
2.33146e-08
1.75239e-05
1.92285e-08
1.75235e-05
8.93867e-09
1.75322e-05
5.93642e-08
1.75282e-05
8.75137e-08
1.75168e-05
5.62277e-08
1.7516e-05
4.04327e-08
1.75239e-05
6.98884e-08
1.75271e-05
9.90686e-08
1.75237e-05
9.58709e-08
1.75234e-05
7.83978e-08
1.75301e-05
7.27948e-08
1.75387e-05
7.90811e-08
1.75442e-05
8.18581e-08
1.75454e-05
7.46153e-08
1.75443e-05
5.98653e-08
1.75451e-05
4.46905e-08
1.75469e-05
3.53656e-08
3.00378e-08
1.75496e-05
1.8367e-05
-2.14466e-09
1.83696e-05
2.07511e-08
1.83633e-05
2.55533e-08
1.83602e-05
1.20247e-08
1.83685e-05
5.1044e-08
1.83687e-05
8.7275e-08
1.83584e-05
6.66051e-08
1.83546e-05
4.42336e-08
1.83621e-05
6.23232e-08
1.83684e-05
9.27804e-08
1.83675e-05
9.68418e-08
1.83658e-05
8.00894e-08
1.837e-05
6.8578e-08
1.83789e-05
7.01277e-08
1.83858e-05
7.49465e-08
1.8389e-05
7.14521e-08
1.83883e-05
6.05926e-08
1.83867e-05
4.62414e-08
1.83874e-05
3.46926e-08
2.86397e-08
1.83888e-05
1.92447e-05
-4.95912e-10
1.92474e-05
1.81312e-08
1.92428e-05
3.0126e-08
1.92377e-05
1.71027e-08
1.92447e-05
4.40377e-08
1.92483e-05
8.37123e-08
1.92404e-05
7.44427e-08
1.92346e-05
5.00681e-08
1.92401e-05
5.67821e-08
1.92486e-05
8.42934e-08
1.92508e-05
9.47153e-08
1.9249e-05
8.18164e-08
1.92509e-05
6.67165e-08