/*--------------------------------*- C++ -*----------------------------------*\
| =========                 |                                                 |
| \\      /  F ield         | OpenFOAM: The Open Source CFD Toolbox           |
|  \\    /   O peration     | Version:  v2012                                 |
|   \\  /    A nd           | Website:  www.openfoam.com                      |
|    \\/     M anipulation  |                                                 |
\*---------------------------------------------------------------------------*/
FoamFile
{
    version     2.0;
    format      ascii;
    class       surfaceScalarField;
    location    "3.8";
    object      phi;
}
// * * * * * * * * * * * * * * * * * * * * * * * * * * * * * * * * * * * * * //

dimensions      [0 3 -1 0 0 0 0];
oriented        oriented;


internalField   nonuniform List<scalar> 
34900
(
1.17516e-06
-1.4019e-07
1.16959e-06
-2.71982e-08
1.17919e-06
1.65937e-07
1.1738e-06
1.09294e-07
1.1755e-06
1.55549e-07
1.16595e-06
1.72177e-09
1.16659e-06
7.01875e-08
1.15707e-06
-6.57073e-08
1.16044e-06
1.17188e-07
1.14877e-06
-1.35708e-07
1.15592e-06
1.85917e-07
1.13966e-06
-1.73354e-07
1.1503e-06
1.88253e-07
1.1314e-06
-1.22315e-07
1.14299e-06
1.3302e-07
1.12305e-06
-6.36702e-08
1.13502e-06
1.00086e-07
1.11339e-06
-3.29669e-08
1.12153e-06
8.44185e-08
-8.86234e-09
1.07709e-06
1.23108e-06
-1.47013e-07
1.22646e-06
-2.25744e-08
1.23475e-06
1.57644e-07
1.23211e-06
1.11941e-07
1.23075e-06
1.56909e-07
1.2239e-06
8.56809e-09
1.2213e-06
7.27913e-08
1.2147e-06
-5.91162e-08
1.21375e-06
1.18143e-07
1.20611e-06
-1.28069e-07
1.20702e-06
1.85009e-07
1.19719e-06
-1.6353e-07
1.1984e-06
1.87047e-07
1.19125e-06
-1.15165e-07
1.18873e-06
1.35543e-07
1.18744e-06
-6.23827e-08
1.17829e-06
1.09232e-07
1.18345e-06
-3.81267e-08
1.16123e-06
1.06639e-07
-9.4117e-09
1.16178e-06
1.28823e-06
-1.52459e-07
1.28752e-06
-2.18642e-08
1.29181e-06
1.53358e-07
1.29416e-06
1.09588e-07
1.28848e-06
1.62587e-07
1.28618e-06
1.08647e-08
1.27876e-06
8.02105e-08
1.2766e-06
-5.69515e-08
1.27056e-06
1.24179e-07
1.26779e-06
-1.25291e-07
1.26353e-06
1.89267e-07
1.25963e-06
-1.59631e-07
1.2555e-06
1.91176e-07
1.25498e-06
-1.14648e-07
1.24856e-06
1.41969e-07
1.25106e-06
-6.48854e-08
1.24356e-06
1.16731e-07
1.2449e-06
-3.9466e-08
1.23566e-06
1.15879e-07
5.82338e-09
1.22042e-06
1.34685e-06
-1.55202e-07
1.35057e-06
-2.55891e-08
1.35046e-06
1.53468e-07
1.35778e-06
1.02271e-07
1.34894e-06
1.71425e-07
1.35052e-06
9.28408e-09
1.33998e-06
9.07539e-08
1.34045e-06
-5.74191e-08
1.33238e-06
1.32244e-07
1.33163e-06
-1.24535e-07
1.32696e-06
1.93935e-07
1.32461e-06
-1.57279e-07
1.32165e-06
1.94127e-07
1.32086e-06
-1.13855e-07
1.31807e-06
1.44758e-07
1.31701e-06
-6.38228e-08
1.3157e-06
1.18042e-07
1.31108e-06
-3.48485e-08
1.30895e-06
1.18014e-07
2.50657e-08
1.28971e-06
1.40788e-06
-1.54729e-07
1.41437e-06
-3.20822e-08
1.41114e-06
1.56703e-07
1.42138e-06
9.20325e-08
1.41243e-06
1.80371e-07
1.41565e-06
6.06889e-09
1.40534e-06
1.01057e-07
1.40571e-06
-5.77901e-08
1.39906e-06
1.38899e-07
1.39761e-06
-1.23085e-07
1.39539e-06
1.96152e-07
1.39212e-06
-1.54005e-07
1.3921e-06
1.94141e-07
1.38936e-06
-1.11107e-07
1.38986e-06
1.44251e-07
1.38611e-06
-6.00679e-08
1.38752e-06
1.16631e-07
1.38036e-06
-2.76892e-08
1.38033e-06
1.18042e-07
4.45179e-08
1.36088e-06
1.47262e-06
-1.51672e-07
1.47916e-06
-3.86264e-08
1.4749e-06
1.6097e-07
1.48539e-06
8.1534e-08
1.47922e-06
1.86547e-07
1.48219e-06
3.09871e-09
1.47454e-06
1.08705e-07
1.47353e-06
-5.67804e-08
1.46951e-06
1.42917e-07
1.46675e-06
-1.20323e-07
1.46688e-06
1.96021e-07
1.46261e-06
-1.49735e-07
1.46456e-06
1.92191e-07
1.46048e-06
-1.0703e-07
1.46272e-06
1.42013e-07
1.45752e-06
-5.48701e-08
1.46026e-06
1.13898e-07
1.45146e-06
-1.88897e-08
1.45295e-06
1.1655e-07
6.39177e-08
1.43355e-06
1.54195e-06
-1.47407e-07
1.54639e-06
-4.30618e-08
1.54281e-06
1.64542e-07
1.55173e-06
7.2622e-08
1.54941e-06
1.88866e-07
1.55157e-06
9.34049e-10
1.54705e-06
1.13227e-07
1.54499e-06
-5.47159e-08
1.54312e-06
1.44786e-07
1.53961e-06
-1.16814e-07
1.54116e-06
1.94472e-07
1.53635e-06
-1.44933e-07
1.53946e-06
1.89085e-07
1.53453e-06
-1.02101e-07
1.53795e-06
1.38591e-07
1.53163e-06
-4.85446e-08
1.53556e-06
1.09966e-07
1.52524e-06
-8.57428e-09
1.52803e-06
1.13767e-07
8.28036e-08
1.50914e-06
1.61596e-06
-1.43237e-07
1.61762e-06
-4.47271e-08
1.61547e-06
1.66698e-07
1.62225e-06
6.58372e-08
1.62311e-06
1.88006e-07
1.62482e-06
-7.69097e-10
1.62273e-06
1.15317e-07
1.62046e-06
-5.24493e-08
1.61996e-06
1.45282e-07
1.6163e-06
-1.13147e-07
1.61871e-06
1.92055e-07
1.6136e-06
-1.3982e-07
1.61764e-06
1.85048e-07
1.61196e-06
-9.64278e-08
1.61652e-06
1.34038e-07
1.60908e-06
-4.11092e-08
1.61419e-06
1.04854e-07
1.60255e-06
3.06822e-09
1.60618e-06
1.10136e-07
1.00548e-07
1.58844e-06
1.69415e-06
-1.39814e-07
1.69374e-06
-4.43141e-08
1.69291e-06
1.67529e-07
1.69793e-06
6.08168e-08
1.70059e-06
1.85345e-07
1.70227e-06
-2.4504e-09
1.70176e-06
1.15829e-07
1.69988e-06
-5.05672e-08
1.70029e-06
1.44864e-07
1.69674e-06
-1.09592e-07
1.69986e-06
1.88933e-07
1.69445e-06
-1.34409e-07
1.69944e-06
1.80057e-07
1.69297e-06
-8.99591e-08
1.69871e-06
1.28302e-07
1.69015e-06
-3.25502e-08
1.69633e-06
9.86696e-08
1.68367e-06
1.57321e-08
1.68761e-06
1.06192e-07
1.1656e-07
1.6716e-06
1.77603e-06
-1.37123e-07
1.77477e-06
-4.30477e-08
1.7749e-06
1.67394e-07
1.77879e-06
5.6927e-08
1.78209e-06
1.82047e-07
1.7839e-06
-4.25824e-09
1.78436e-06
1.15368e-07
1.78303e-06
-4.92441e-08
1.78417e-06
1.43725e-07
1.78077e-06
-1.06187e-07
1.78459e-06
1.85109e-07
1.7788e-06
-1.28621e-07
1.78483e-06
1.74029e-07
1.77747e-06
-8.25985e-08
1.78443e-06
1.21342e-07
1.77478e-06
-2.28959e-08
1.78181e-06
9.16359e-08
1.76855e-06
2.89908e-08
1.77221e-06
1.02529e-07
1.30325e-07
1.75845e-06
1.86146e-06
-1.34835e-07
1.86033e-06
-4.19194e-08
1.86115e-06
1.66577e-07
1.86444e-06
5.36359e-08
1.86774e-06
1.78749e-07
1.86959e-06
-6.10918e-09
1.87066e-06
1.14298e-07
1.8698e-06
-4.83888e-08
1.87158e-06
1.41951e-07
1.86823e-06
-1.02844e-07
1.8728e-06
1.80545e-07
1.86652e-06
-1.22345e-07
1.87366e-06
1.66896e-07
1.86533e-06
-7.42706e-08
1.87348e-06
1.13193e-07
1.86285e-06
-1.22662e-08
1.87038e-06
8.40989e-08
1.85707e-06
4.23096e-08
1.85983e-06
9.97609e-08
1.41457e-07
1.8487e-06
1.95064e-06
-1.32636e-07
1.95011e-06
-4.13933e-08
1.95145e-06
1.65242e-07
1.95449e-06
5.05951e-08
1.95758e-06
1.75661e-07
1.95933e-06
-7.86523e-09
1.96081e-06
1.12825e-07
1.96022e-06
-4.78016e-08
1.96258e-06
1.39587e-07
1.95915e-06
-9.94145e-08
1.96451e-06
1.75188e-07
1.95763e-06
-1.15465e-07
1.96589e-06
1.58633e-07
1.95658e-06
-6.49595e-08
1.96579e-06
1.03989e-07
1.95442e-06
-9.03141e-10
1.962e-06
7.65207e-08
1.94921e-06
5.51015e-08
1.95055e-06
9.84239e-08
1.49783e-07
1.94222e-06
2.04391e-06
-1.3036e-07
2.04403e-06
-4.15136e-08
2.04578e-06
1.63496e-07
2.04877e-06
4.76004e-08
2.05167e-06
1.72761e-07
2.05324e-06
-9.43105e-09
2.05501e-06
1.11052e-07
2.05448e-06
-4.72698e-08
2.05742e-06
1.36652e-07
2.05373e-06
-9.57303e-08
2.05993e-06
1.68991e-07
2.05235e-06
-1.07881e-07
2.06172e-06
1.49261e-07
2.05149e-06
-5.47261e-08
2.0615e-06
9.39717e-08
2.04977e-06
1.08274e-08
2.05685e-06
6.94378e-08
2.04515e-06
6.681e-08
2.04472e-06
9.88452e-08
1.55417e-07
2.03909e-06
2.14161e-06
-1.27967e-07
2.14223e-06
-4.21313e-08
2.14429e-06
1.61431e-07
2.14735e-06
4.45447e-08
2.15017e-06
1.69934e-07
2.1515e-06
-1.07619e-08
2.15356e-06
1.08996e-07
2.1529e-06
-4.66087e-08
2.15642e-06
1.33134e-07
2.15232e-06
-9.16303e-08
2.1594e-06
1.61909e-07
2.15104e-06
-9.95266e-08
2.16145e-06
1.38853e-07
2.15044e-06
-4.37158e-08
2.16093e-06
8.34808e-08
2.1493e-06
2.24635e-08
2.15533e-06
6.34041e-08
2.14516e-06
7.69787e-08
2.14291e-06
1.01101e-07
1.58745e-07
2.13958e-06
2.244e-06
-1.25479e-07
2.24493e-06
-4.30621e-08
2.24725e-06
1.59117e-07
2.2504e-06
4.13883e-08
2.25329e-06
1.67049e-07
2.25436e-06
-1.18353e-08
2.25674e-06
1.0662e-07
2.2558e-06
-4.56693e-08
2.25994e-06
1.28994e-07
2.25529e-06
-8.69793e-08
2.26328e-06
1.53913e-07
2.25414e-06
-9.03828e-08
2.26546e-06
1.27536e-07
2.2539e-06
-3.21629e-08
2.26446e-06
7.29275e-08
2.2534e-06
3.35139e-08
2.2579e-06
5.89124e-08
2.24957e-06
8.5306e-08
2.24563e-06
1.05038e-07
1.60325e-07
2.24405e-06
2.35133e-06
-1.22937e-07
2.35242e-06
-4.41457e-08
2.35494e-06
1.56593e-07
2.35819e-06
3.8138e-08
2.36126e-06
1.63976e-07
2.36205e-06
-1.2623e-08
2.36482e-06
1.03849e-07
2.36348e-06
-4.43278e-08
2.3683e-06
1.24171e-07
2.363e-06
-8.16767e-08
2.37192e-06
1.44997e-07
2.36203e-06
-8.04952e-08
2.37406e-06
1.1551e-07
2.36229e-06
-2.03931e-08
2.37244e-06
6.27755e-08
2.36244e-06
4.35152e-08
2.36503e-06
5.63182e-08
2.35864e-06
9.1698e-08
2.35338e-06
1.10302e-07
1.60798e-07
2.3529e-06
2.46384e-06
-1.20382e-07
2.46495e-06
-4.52505e-08
2.46768e-06
1.5386e-07
2.47098e-06
3.48343e-08
2.47436e-06
1.60595e-07
2.47482e-06
-1.30767e-08
2.47808e-06
1.00584e-07
2.47623e-06
-4.2477e-08
2.4818e-06
1.18601e-07
2.47579e-06
-7.56648e-08
2.48559e-06
1.35196e-07
2.47509e-06
-6.99916e-08
2.48754e-06
1.03053e-07
2.47596e-06
-8.81174e-09
2.48524e-06
5.35006e-08
2.47666e-06
5.20937e-08
2.4772e-06
5.57813e-08
2.4726e-06
9.62975e-08
2.46652e-06
1.16375e-07
1.60794e-07
2.46653e-06
2.58177e-06
-1.17854e-07
2.58278e-06
-4.62625e-08
2.58576e-06
1.50879e-07
2.58905e-06
3.15429e-08
2.59287e-06
1.56781e-07
2.59291e-06
-1.31247e-08
2.59678e-06
9.67214e-08
2.59432e-06
-4.00243e-08
2.60069e-06
1.12234e-07
2.59397e-06
-6.89403e-08
2.60455e-06
1.24609e-07
2.59365e-06
-5.90911e-08
2.60619e-06
9.05181e-08
2.59524e-06
2.13694e-09
2.60321e-06
4.55327e-08
2.59628e-06
5.90167e-08
2.59483e-06
5.72344e-08
2.59167e-06
9.94577e-08
2.58538e-06
1.22666e-07
1.60858e-07
2.58531e-06
2.70536e-06
-1.15389e-07
2.70618e-06
-4.70745e-08
2.70948e-06
1.47575e-07
2.71267e-06
2.83502e-08
2.71705e-06
1.52407e-07
2.7166e-06
-1.2678e-08
2.72116e-06
9.21562e-08
2.71804e-06
-3.6901e-08
2.72522e-06
1.05057e-07
2.71785e-06
-6.15705e-08
2.72904e-06
1.13415e-07
2.71805e-06
-4.8103e-08
2.73027e-06
7.83071e-08
2.72038e-06
1.20204e-08
2.72671e-06
3.92069e-08
2.72151e-06
6.42187e-08
2.71834e-06
6.04031e-08
2.71614e-06
1.01656e-07
2.71018e-06
1.28629e-07
1.61369e-07
2.70966e-06
2.8349e-06
-1.1302e-07
2.8354e-06
-4.75793e-08
2.83914e-06
1.43844e-07
2.84213e-06
2.53583e-08
2.84719e-06
1.47343e-07
2.84616e-06
-1.16442e-08
2.85151e-06
8.68057e-08
2.84769e-06
-3.30795e-08
2.85563e-06
9.71179e-08
2.84777e-06
-5.37106e-08
2.8593e-06
1.01876e-07
2.8486e-06
-3.74005e-08
2.8601e-06
6.68126e-08
2.85162e-06
2.04928e-08
2.85614e-06
3.46947e-08
2.85252e-06
6.78351e-08
2.84805e-06
6.48747e-08
2.84633e-06
1.0337e-07
2.8411e-06
1.33867e-07
1.62487e-07
2.83998e-06
2.97066e-06
-1.10781e-07
2.97074e-06
-4.76664e-08
2.97503e-06
1.3956e-07
2.97771e-06
2.26779e-08
2.98358e-06
1.41467e-07
2.98188e-06
-9.94492e-09
2.98806e-06
8.06254e-08
2.98358e-06
-2.85955e-08
2.99215e-06
8.85457e-08
2.98405e-06
-4.56122e-08
2.9956e-06
9.03316e-08
2.98559e-06
-2.73873e-08
2.99603e-06
5.63697e-08
2.98916e-06
2.73564e-08
2.99191e-06
3.19537e-08
2.98955e-06
7.01882e-08
2.98423e-06
7.02002e-08
2.98261e-06
1.04985e-07
2.97831e-06
1.38164e-07
1.64168e-07
2.97663e-06
3.11292e-06
-1.08699e-07
3.11248e-06
-4.72218e-08
3.11746e-06
1.34581e-07
3.11972e-06
2.04175e-08
3.12651e-06
1.34674e-07
3.1241e-06
-7.53703e-09
3.1311e-06
7.36323e-08
3.12607e-06
-2.35681e-08
3.13505e-06
7.95636e-08
3.12705e-06
-3.76126e-08
3.13822e-06
7.91616e-08
3.12928e-06
-1.84477e-08
3.13843e-06
4.7222e-08
3.13322e-06
3.25653e-08
3.13443e-06
3.07468e-08
3.13292e-06
7.16981e-08
3.12712e-06
7.59971e-08
3.12526e-06
1.06846e-07
3.12201e-06
1.41413e-07
1.66224e-07
3.11996e-06
3.26201e-06
-1.06802e-07
3.26092e-06
-4.6131e-08
3.26674e-06
1.28763e-07
3.26849e-06
1.86689e-08
3.27627e-06
1.26898e-07
3.27317e-06
-4.43705e-09
3.28087e-06
6.59278e-08
3.27552e-06
-1.82175e-08
3.28459e-06
7.04938e-08
3.2771e-06
-3.01217e-08
3.2875e-06
6.87589e-08
3.27996e-06
-1.09029e-08
3.28768e-06
3.94991e-08
3.28407e-06
3.61749e-08
3.28411e-06
3.07056e-08
3.28307e-06
7.27355e-08
3.27697e-06
8.21005e-08
3.27436e-06
1.09452e-07
3.27249e-06
1.43287e-07
1.68584e-07
3.27013e-06
3.41824e-06
-1.05113e-07
3.4164e-06
-4.42871e-08
3.42318e-06
1.21977e-07
3.42437e-06
1.74862e-08
3.43313e-06
1.18131e-07
3.42944e-06
-7.49062e-10
3.43765e-06
5.77231e-08
3.43231e-06
-1.28814e-08
3.44105e-06
6.17559e-08
3.43453e-06
-2.36003e-08
3.44379e-06
5.94962e-08
3.43787e-06
-4.97698e-09
3.44413e-06
3.32326e-08
3.44204e-06
3.82714e-08
3.44142e-06
3.13207e-08
3.44101e-06
7.31466e-08
3.43418e-06
8.89274e-08
3.42958e-06
1.14052e-07
3.42921e-06
1.43665e-07
1.70904e-07
3.42689e-06
3.58195e-06
-1.03648e-07
3.57926e-06
-4.15993e-08
3.58711e-06
1.14131e-07
3.58773e-06
1.68646e-08
3.59741e-06
1.0845e-07
3.59334e-06
3.32027e-09
3.60173e-06
4.93347e-08
3.59682e-06
-7.97231e-09
3.6048e-06
5.37708e-08
3.59961e-06
-1.84032e-08
3.60755e-06
5.15487e-08
3.60321e-06
-6.37412e-10
3.60824e-06
2.82115e-08
3.60743e-06
3.90807e-08
3.60689e-06
3.18515e-08
3.60973e-06
7.03137e-08
3.60873e-06
8.99247e-08
3.60349e-06
1.19289e-07
3.58739e-06
1.5977e-07
1.68806e-07
3.58949e-06
3.75347e-06
-1.02415e-07
3.74988e-06
-3.80067e-08
3.75882e-06
1.05186e-07
3.75897e-06
1.67208e-08
3.7694e-06
9.80233e-08
3.76525e-06
7.46237e-09
3.77344e-06
4.1147e-08
3.76936e-06
-3.89083e-09
3.7763e-06
4.68334e-08
3.77249e-06
-1.45975e-08
3.77934e-06
4.4703e-08
3.77617e-06
2.52858e-09
3.78058e-06
2.38006e-08
3.78077e-06
3.88883e-08
3.78122e-06
3.14072e-08
3.78786e-06
6.36742e-08
3.79194e-06
8.58421e-08
3.79984e-06
1.11386e-07
3.81322e-06
1.46388e-07
1.92207e-07
3.78982e-06
3.93318e-06
-1.01409e-07
3.92867e-06
-3.34972e-08
3.93866e-06
9.51996e-08
3.93852e-06
1.68576e-08
3.9494e-06
8.7141e-08
3.94562e-06
1.12496e-08
3.95316e-06
3.36083e-08
3.95027e-06
-1.0015e-09
3.95601e-06
4.10932e-08
3.95342e-06
-1.2014e-08
3.95957e-06
3.85578e-08
3.95715e-06
4.95157e-09
3.96151e-06
1.94321e-08
3.96347e-06
3.69335e-08
3.96265e-06
3.22217e-08
3.95637e-06
6.99601e-08
3.94609e-06
9.61247e-08
3.93938e-06
1.18097e-07
3.93136e-06
1.54408e-07
1.85655e-07
3.93791e-06
4.12145e-06
-1.0061e-07
4.11607e-06
-2.81173e-08
4.12693e-06
8.43419e-08
4.12684e-06
1.69513e-08
4.13778e-06
7.61944e-08
4.13484e-06
1.41877e-08
4.14132e-06
2.71286e-08
4.13982e-06
4.97545e-10
4.14446e-06
3.64586e-08
4.14272e-06
-1.02784e-08
4.14858e-06
3.2704e-08
4.14671e-06
6.81997e-09
4.14898e-06
1.71618e-08
4.14506e-06
4.08491e-08
4.13589e-06
4.13947e-08
4.13391e-06
7.19439e-08
4.12921e-06
1.00822e-07
4.12368e-06
1.23625e-07
4.12153e-06
1.56555e-07
1.81916e-07
4.12527e-06
4.31867e-06
-9.998e-08
4.31254e-06
-2.19883e-08
4.32396e-06
7.29261e-08
4.32437e-06
1.6545e-08
4.33492e-06
6.56381e-08
4.3333e-06
1.58122e-08
4.33848e-06
2.19422e-08
4.33828e-06
7.02892e-10
4.34218e-06
3.25586e-08
4.34078e-06
-8.8778e-09
4.34593e-06
2.75477e-08
4.34143e-06
1.13234e-08
4.3384e-06
2.01971e-08
4.33456e-06
4.46874e-08
4.3285e-06
4.74517e-08
4.32572e-06
7.47232e-08
4.32201e-06
1.04534e-07
4.31815e-06
1.27488e-07
4.31857e-06
1.56133e-07
1.78876e-07
4.32161e-06
4.52526e-06
-9.94613e-08
4.51859e-06
-1.53197e-08
4.53009e-06
6.14244e-08
4.53157e-06
1.50657e-08
4.54127e-06
5.59336e-08
4.54132e-06
1.57653e-08
4.54523e-06
1.80318e-08
4.54592e-06
1.3383e-11
4.54955e-06
2.89256e-08
4.54715e-06
-6.47918e-09
4.54938e-06
2.53252e-08
4.54301e-06
1.76858e-08
4.53955e-06
2.36636e-08
4.53609e-06
4.81451e-08
4.53063e-06
5.29074e-08
4.52768e-06
7.76791e-08
4.52466e-06
1.07556e-07
4.52196e-06
1.30188e-07
4.5239e-06
1.54185e-07
1.76558e-07
4.52622e-06
4.74163e-06
-9.89736e-08
4.73472e-06
-8.41734e-09
4.74569e-06
5.04553e-08
4.74887e-06
1.18891e-08
4.75736e-06
4.74441e-08
4.75919e-06
1.39314e-08
4.76218e-06
1.50481e-08
4.76308e-06
-8.91309e-10
4.76639e-06
2.56199e-08
4.76113e-06
-1.22191e-09
4.76085e-06
2.56074e-08
4.75508e-06
2.34586e-08
4.75109e-06
2.76487e-08
4.74791e-06
5.13241e-08
4.74278e-06
5.80373e-08
4.73982e-06
8.06437e-08
4.73739e-06
1.09987e-07
4.73574e-06
1.31831e-07
4.73758e-06
1.52343e-07
1.74039e-07
4.7401e-06
4.96824e-06
-9.84175e-08
4.9615e-06
-1.67333e-09
4.97121e-06
4.07445e-08
4.97667e-06
6.43112e-09
4.98379e-06
4.03209e-08
4.98723e-06
1.0491e-08
4.98985e-06
1.24301e-08
4.98988e-06
-9.22179e-10
4.99157e-06
2.39257e-08
4.98421e-06
6.14167e-09
4.98264e-06
2.71773e-08
4.97752e-06
2.85802e-08
4.97335e-06
3.18133e-08
4.97026e-06
5.44178e-08
4.96539e-06
6.29066e-08
4.96249e-06
8.35459e-08
4.96066e-06
1.11819e-07
4.95991e-06
1.32575e-07
4.96107e-06
1.51181e-07
1.70959e-07
4.96415e-06
5.20558e-06
-9.76813e-08
5.19945e-06
4.45691e-09
5.20715e-06
3.30452e-08
5.21527e-06
-1.69428e-09
5.22124e-06
3.43539e-08
5.22582e-06
5.91302e-09
5.22849e-06
9.76059e-09
5.22633e-06
1.23685e-09
5.22528e-06
2.49777e-08
5.21787e-06
1.35491e-08
5.21535e-06
2.96958e-08
5.21089e-06
3.30403e-08
5.20668e-06
3.60227e-08
5.20359e-06
5.75084e-08
5.19895e-06
6.7546e-08
5.19611e-06
8.63846e-08
5.195e-06
1.12928e-07
5.19475e-06
1.32831e-07
5.1957e-06
1.50231e-07
1.67597e-07
5.19906e-06
5.45416e-06
-9.6649e-08
5.44912e-06
9.49745e-09
5.45421e-06
2.79524e-08
5.46491e-06
-1.23967e-08
5.47036e-06
2.89037e-08
5.47531e-06
9.61512e-10
5.47803e-06
7.04774e-09
5.47211e-06
7.15162e-09
5.46952e-06
2.75728e-08
5.46287e-06
2.0197e-08
5.45969e-06
3.28762e-08
5.45563e-06
3.70978e-08
5.45147e-06
4.01866e-08
5.44843e-06
6.05404e-08
5.44401e-06
7.19705e-08
5.44122e-06
8.91778e-08
5.44083e-06
1.13319e-07
5.44085e-06
1.32807e-07
5.44195e-06
1.49129e-07
1.64122e-07
5.44543e-06
5.71452e-06
-9.52111e-08
5.71105e-06
1.2968e-08
5.71317e-06
2.5836e-08
5.72579e-06
-2.50191e-08
5.73142e-06
2.32715e-08
5.73492e-06
-2.54243e-09
5.73546e-06
6.5126e-09
5.72848e-06
1.4134e-08
5.72537e-06
3.06777e-08
5.71987e-06
2.57028e-08
5.7162e-06
3.65409e-08
5.71224e-06
4.10633e-08
5.70817e-06
4.42517e-08
5.70528e-06
6.34291e-08
5.70113e-06
7.61237e-08
5.69839e-06
9.19141e-08
5.69851e-06
1.13207e-07
5.69889e-06
1.32425e-07
5.70029e-06
1.47724e-07
1.60585e-07
5.70383e-06
5.98726e-06
-9.32754e-08
5.98582e-06
1.44017e-08
5.98489e-06
2.67668e-08
5.99802e-06
-3.81456e-08
6.00342e-06
1.78655e-08
6.00312e-06
-2.23574e-09
6.00343e-06
6.20101e-09
5.99726e-06
2.03074e-08
5.99393e-06
3.40078e-08
5.98926e-06
3.03666e-08
5.98543e-06
4.03742e-08
5.9813e-06
4.51881e-08
5.97733e-06
4.82265e-08
5.97464e-06
6.61193e-08
5.97087e-06
7.98885e-08
5.96826e-06
9.45302e-08
5.96858e-06
1.12887e-07
5.96944e-06
1.31566e-07
5.97123e-06
1.4593e-07
1.56985e-07
5.97483e-06
6.27299e-06
-9.07798e-08
6.27393e-06
1.34614e-08
6.27025e-06
3.04463e-08
6.28188e-06
-4.97739e-08
6.28674e-06
1.30072e-08
6.28443e-06
7.38541e-11
6.285e-06
5.62694e-09
6.2795e-06
2.58105e-08
6.27568e-06
3.78284e-08
6.27159e-06
3.44529e-08
6.26788e-06
4.40927e-08
6.2635e-06
4.95629e-08
6.25953e-06
5.22023e-08
6.25706e-06
6.8588e-08
6.2538e-06
8.3148e-08
6.25142e-06
9.69083e-08
6.25171e-06
1.12601e-07
6.25306e-06
1.30212e-07
6.25531e-06
1.43681e-07
1.53274e-07
6.25902e-06
6.57238e-06
-8.7689e-08
6.57584e-06
9.99545e-09
6.56996e-06
3.63275e-08
6.57866e-06
-5.84735e-08
6.58407e-06
7.59952e-09
6.58026e-06
3.88934e-09
6.5805e-06
5.37799e-09
6.57567e-06
3.06446e-08
6.57125e-06
4.22487e-08
6.56746e-06
3.82458e-08
6.56406e-06
4.74898e-08
6.55952e-06
5.41043e-08
6.55541e-06
5.63103e-08
6.55314e-06
7.08627e-08
6.55046e-06
8.58236e-08
6.54847e-06
9.89021e-08
6.54862e-06
1.12445e-07
6.55037e-06
1.28468e-07
6.5531e-06
1.40947e-07
1.49369e-07
6.557e-06
6.8861e-06
-8.39974e-08
6.89196e-06
4.13072e-09
6.88472e-06
4.3571e-08
6.89017e-06
-6.39261e-08
6.89599e-06
1.78181e-09
6.8908e-06
9.07857e-09
6.8903e-06
5.87613e-09
6.8863e-06
3.46513e-08
6.88131e-06
4.72346e-08
6.87752e-06
4.20385e-08
6.87454e-06
5.04678e-08
6.87002e-06
5.86287e-08
6.86569e-06
6.06335e-08
6.86352e-06
7.30317e-08
6.86146e-06
8.78897e-08
6.86e-06
1.0036e-07
6.86005e-06
1.12391e-07
6.86203e-06
1.26488e-07
6.86521e-06
1.37769e-07
1.45189e-07
6.86939e-06
7.21487e-06
-7.97317e-08
7.22277e-06
-3.76827e-09
7.21526e-06
5.10852e-08
7.21743e-06
-6.60994e-08
7.22318e-06
-3.97096e-09
7.21667e-06
1.55875e-08
7.215e-06
7.54888e-09
7.21195e-06
3.77038e-08
7.20657e-06
5.2608e-08
7.20249e-06
4.61204e-08
7.19993e-06
5.30251e-08
7.19565e-06
6.29106e-08
7.19112e-06
6.51703e-08
7.18893e-06
7.52222e-08
7.18746e-06
8.93513e-08
7.18663e-06
1.01196e-07
7.18671e-06
1.12305e-07
7.18881e-06
1.24394e-07
7.19233e-06
1.34246e-07
1.40695e-07
7.19682e-06
7.55944e-06
-7.49442e-08
7.56895e-06
-1.32834e-08
7.5622e-06
5.78361e-08
7.56137e-06
-6.52627e-08
7.56641e-06
-9.01606e-09
7.55854e-06
2.34553e-08
7.55533e-06
1.07639e-08
7.55324e-06
3.97936e-08
7.54777e-06
5.80799e-08
7.54316e-06
5.0723e-08
7.5409e-06
5.52864e-08
7.5371e-06
6.67102e-08
7.53245e-06
6.98236e-08
7.5301e-06
7.75763e-08
7.52922e-06
9.02315e-08
7.52897e-06
1.01438e-07
7.5293e-06
1.11979e-07
7.53145e-06
1.22241e-07
7.53519e-06
1.30505e-07
1.3591e-07
7.53998e-06
7.92058e-06
-6.9708e-08
7.93113e-06
-2.3839e-08
7.92622e-06
6.2743e-08
7.92305e-06
-6.20883e-08
7.92639e-06
-1.23519e-08
7.91713e-06
3.27104e-08
7.91212e-06
1.57772e-08
7.91084e-06
4.10666e-08
7.90563e-06
6.32976e-08
7.90037e-06
5.59765e-08
7.89816e-06
5.7498e-08
7.89504e-06
6.98302e-08
7.89046e-06
7.44021e-08
7.88785e-06
8.01907e-08
7.88744e-06
9.0638e-08
7.88775e-06
1.0113e-07
7.88851e-06
1.11217e-07
7.89075e-06
1.19999e-07
7.89461e-06
1.2665e-07
1.30902e-07
7.89962e-06
8.29906e-06
-6.40905e-08
8.31003e-06
-3.48062e-08
8.30866e-06
6.41167e-08
8.30316e-06
-5.65933e-08
8.30365e-06
-1.2841e-08
8.29321e-06
4.3148e-08
8.28626e-06
2.27273e-08
8.28551e-06
4.18221e-08
8.28089e-06
6.79147e-08
8.27498e-06
6.18858e-08
8.27252e-06
5.99561e-08
8.27015e-06
7.22028e-08
8.26592e-06
7.86291e-08
8.26305e-06
8.30632e-08
8.26292e-06
9.07721e-08
8.26374e-06
1.00308e-07
8.26506e-06
1.09899e-07
8.26749e-06
1.17569e-07
8.2714e-06
1.22733e-07
1.25758e-07
8.27655e-06
8.69572e-06
-5.81482e-08
8.70744e-06
-4.65222e-08
8.70873e-06
6.28271e-08
8.70095e-06
-4.88205e-08
8.69845e-06
-1.03338e-08
8.68757e-06
5.40192e-08
8.67877e-06
3.1531e-08
8.67806e-06
4.25365e-08
8.67428e-06
7.16896e-08
8.66787e-06
6.83001e-08
8.66488e-06
6.29382e-08
8.66317e-06
7.39185e-08
8.65959e-06
8.22107e-08
8.65659e-06
8.60625e-08
8.65651e-06
9.08473e-08
8.65776e-06
9.90585e-08
8.6597e-06
1.07964e-07
8.66244e-06
1.14825e-07
8.66643e-06
1.18745e-07
1.20556e-07
8.67163e-06
9.11136e-06
-5.1893e-08
9.12495e-06
-6.01072e-08
9.1271e-06
6.06784e-08
9.11386e-06
-3.55799e-08
9.11106e-06
-7.53448e-09
9.10103e-06
6.40469e-08
9.09065e-06
4.19087e-08
9.08935e-06
4.38348e-08
9.08655e-06
7.44945e-08
9.07992e-06
7.49285e-08
9.0762e-06
6.66549e-08
9.07492e-06
7.51998e-08
9.07221e-06
8.49205e-08
9.06934e-06
8.89375e-08
9.06916e-06
9.10282e-08
9.0707e-06
9.7519e-08
9.07324e-06
1.05419e-07
9.07642e-06
1.11646e-07
9.08055e-06
1.14621e-07
1.15334e-07
9.08577e-06
9.54684e-06
-4.52746e-08
9.55701e-06
-7.02744e-08
9.55452e-06
6.31656e-08
9.54294e-06
-2.39981e-08
9.54247e-06
-7.06013e-09
9.53453e-06
7.19808e-08
9.52284e-06
5.35971e-08
9.52038e-06
4.62931e-08
9.51851e-06
7.63696e-08
9.51203e-06
8.14107e-08
9.50748e-06
7.11988e-08
9.50633e-06
7.63525e-08
9.50459e-06
8.66631e-08
9.50216e-06
9.13696e-08
9.50181e-06
9.13714e-08
9.5035e-06
9.58323e-08
9.50658e-06
1.02342e-07
9.51028e-06
1.07945e-07
9.51463e-06
1.10266e-07
1.10081e-07
9.51989e-06
1.00032e-05
-3.82936e-08
1.00048e-05
-7.18879e-08
1.00038e-05
6.41154e-08
9.99328e-06
-1.3464e-08
9.99415e-06
-7.93038e-09
9.98878e-06
7.73569e-08
9.97625e-06
6.6123e-08
9.97221e-06
5.03319e-08
9.97104e-06
7.75382e-08
9.96508e-06
8.7372e-08
9.95976e-06
7.65193e-08
9.95842e-06
7.7698e-08
9.95757e-06
8.75054e-08
9.95587e-06
9.30701e-08
9.95544e-06
9.18032e-08
9.95717e-06
9.41058e-08
9.96063e-06
9.88764e-08
9.96488e-06
1.03702e-07
9.96957e-06
1.05577e-07
1.04745e-07
9.9749e-06
1.04814e-05
-3.10406e-08
1.04763e-05
-6.68246e-08
1.04801e-05
6.03541e-08
1.04677e-05
-1.05115e-09
1.04674e-05
-7.68161e-09
1.04644e-05
8.03832e-08
1.04517e-05
7.88101e-08
1.04459e-05
5.61812e-08
1.0445e-05
7.83632e-08
1.04399e-05
9.24852e-08
1.0434e-05
8.24073e-08
1.04322e-05
7.95059e-08
1.04321e-05
8.76375e-08
1.04313e-05
9.38623e-08
1.0431e-05
9.21242e-08
1.04327e-05
9.23709e-08
1.04364e-05
9.51753e-08
1.04411e-05
9.89725e-08
1.04463e-05
1.00473e-07
9.92449e-08
1.04518e-05
1.09829e-05
-2.39682e-08
1.09924e-05
-7.63056e-08
1.09838e-05
6.89487e-08
1.09658e-05
1.70097e-08
1.09635e-05
-5.38879e-09
1.09624e-05
8.14728e-08
1.09502e-05
9.10159e-08
1.09425e-05
6.39012e-08
1.09415e-05
7.92939e-08
1.09375e-05
9.65669e-08
1.09313e-05
8.8527e-08
1.09289e-05
8.19763e-08
1.09291e-05
8.73543e-08
1.09293e-05
9.36958e-08
1.09293e-05
9.21181e-08
1.09311e-05
9.05661e-08
1.09349e-05
9.13559e-08
1.094e-05
9.38653e-08
1.09456e-05
9.49256e-08
9.34871e-08
1.09514e-05
1.15082e-05
-1.6811e-08
1.15023e-05
-7.03502e-08
1.15049e-05
6.63358e-08
1.14891e-05
3.27792e-08
1.14841e-05
-4.3484e-10
1.1484e-05
8.16236e-08
1.14727e-05
1.02313e-07
1.14632e-05
7.33834e-08
1.14617e-05
8.0845e-08
1.14586e-05
9.95801e-08
1.14527e-05
9.44438e-08
1.14495e-05
8.51594e-08
1.14499e-05
8.69856e-08
1.1451e-05
9.2609e-08
1.14515e-05
9.16044e-08
1.14535e-05
8.85438e-08
1.14574e-05
8.74735e-08
1.14628e-05
8.85042e-08
1.14687e-05
8.89696e-08
8.73919e-08
1.14748e-05
1.20589e-05
-9.91354e-09
1.20512e-05
-6.26413e-08
1.2052e-05
6.55812e-08
1.20376e-05
4.71365e-08
1.20302e-05
6.98013e-09
1.20303e-05
8.15165e-08
1.20202e-05
1.1238e-07
1.20093e-05
8.43303e-08
1.20066e-05
8.35226e-08
1.20045e-05
1.01658e-07
1.19992e-05
9.97771e-08
1.19954e-05
8.89594e-08
1.19955e-05
8.6843e-08
1.19973e-05
9.08244e-08
1.19985e-05
9.04039e-08
1.20009e-05
8.61696e-08
1.20049e-05
8.35127e-08
1.20104e-05
8.29849e-08
1.20167e-05
8.26717e-08
8.09178e-08
1.20232e-05
1.2636e-05
-3.33874e-09
1.26257e-05
-5.23702e-08
1.26273e-05
6.40181e-08
1.2613e-05
6.14958e-08
1.26027e-05
1.7218e-08
1.26025e-05
8.16909e-08
1.25938e-05
1.21086e-07
1.25818e-05
9.63377e-08
1.25776e-05
8.77587e-08
1.25761e-05
1.03123e-07
1.25717e-05
1.04213e-07
1.25675e-05
9.31076e-08
1.25672e-05
8.71511e-08
1.25694e-05
8.86696e-08
1.25715e-05
8.82987e-08
1.25743e-05
8.33967e-08
1.25784e-05
7.93397e-08
1.2584e-05
7.73795e-08
1.25906e-05
7.60935e-08
7.40594e-08
1.25975e-05
1.32408e-05
2.77569e-09
1.32339e-05
-4.54864e-08
1.32323e-05
6.5696e-08
1.32162e-05
7.75758e-08
1.32029e-05
3.04743e-08
1.32019e-05
8.26751e-08
1.31946e-05
1.28413e-07
1.3182e-05
1.08902e-07
1.3176e-05
9.37989e-08
1.31747e-05
1.04455e-07
1.31713e-05
1.07613e-07
1.31672e-05
9.72237e-08
1.31663e-05
8.80599e-08
1.31685e-05
8.64621e-08
1.31715e-05
8.52434e-08
1.31747e-05
8.0225e-08
1.31793e-05
7.47147e-08
1.31849e-05
7.1805e-08
1.31917e-05
6.92392e-08
6.68299e-08
1.3199e-05
1.38745e-05
8.43661e-09
1.38667e-05
-3.77292e-08
1.38643e-05
6.81264e-08
1.38484e-05
9.34914e-08
1.38325e-05
4.63602e-08
1.383e-05
8.52067e-08
1.38239e-05
1.34529e-07
1.38112e-05
1.21544e-07
1.38033e-05
1.01686e-07
1.38015e-05
1.06268e-07
1.37991e-05
1.10066e-07
1.37953e-05
1.0095e-07
1.37939e-05
8.95296e-08
1.37959e-05
8.44198e-08
1.37997e-05
8.14909e-08
1.38034e-05
7.65048e-08
1.38087e-05
6.94448e-08
1.38142e-05
6.63089e-08
1.38214e-05
6.20303e-08
5.92449e-08
1.3829e-05
1.45384e-05
1.36762e-08
1.45234e-05
-2.27093e-08
1.45244e-05
6.71257e-08
1.45108e-05
1.07057e-07
1.44929e-05
6.43122e-08
1.44881e-05
8.99933e-08
1.44829e-05
1.39748e-07
1.44705e-05
1.33888e-07
1.4461e-05
1.11224e-07
1.44581e-05
1.09147e-07
1.44563e-05
1.11842e-07
1.44532e-05
1.04051e-07
1.44515e-05
9.12859e-08
1.44532e-05
8.27341e-08
1.44572e-05
7.74643e-08
1.44618e-05
7.19224e-08
1.44674e-05
6.38284e-08
1.44734e-05
6.03029e-08
1.44807e-05
5.46989e-08
5.12193e-08
1.44888e-05
1.52342e-05
1.83081e-08
1.52208e-05
-9.27992e-09
1.52175e-05
7.0482e-08
1.52045e-05
1.20029e-07
1.51853e-05
8.35363e-08
1.51778e-05
9.74508e-08
1.5173e-05
1.44577e-07
1.51612e-05
1.45627e-07
1.51504e-05
1.22095e-07
1.5146e-05
1.1353e-07
1.51444e-05
1.13422e-07
1.5142e-05
1.06469e-07
1.51403e-05
9.3025e-08
1.51415e-05
8.15209e-08
1.51455e-05
7.3422e-08
1.51509e-05
6.64881e-08
1.51566e-05
5.81563e-08
1.51639e-05
5.30483e-08
1.5171e-05
4.75354e-08
4.25811e-08
1.51797e-05
1.59632e-05
2.24674e-08
1.59501e-05
3.79642e-09
1.59429e-05
7.76329e-08
1.59312e-05
1.31765e-07
1.59111e-05
1.03651e-07
1.59008e-05
1.07724e-07
1.58957e-05
1.49725e-07
1.58847e-05
1.56628e-07
1.58728e-05
1.33958e-07
1.58667e-05
1.19639e-07
1.58647e-05
1.15419e-07
1.58629e-05
1.08278e-07
1.58613e-05
9.45885e-08
1.58622e-05
8.06665e-08
1.58661e-05
6.95472e-08
1.5872e-05
6.05974e-08
1.58782e-05
5.19393e-08
1.58861e-05
4.51107e-08
1.58942e-05
3.94349e-08
3.40539e-08
1.59027e-05
1.67266e-05
2.65097e-08
1.67042e-05
2.61452e-08
1.67026e-05
7.92852e-08
1.66927e-05
1.41657e-07
1.66718e-05
1.24482e-07
1.66587e-05
1.20817e-07
1.66526e-05
1.55882e-07
1.66422e-05
1.66976e-07
1.66297e-05
1.46486e-07
1.66219e-05
1.27497e-07
1.66188e-05
1.18457e-07
1.66174e-05
1.09726e-07
1.6616e-05
9.59802e-08
1.66167e-05
7.99796e-08
1.66202e-05
6.59703e-08
1.66262e-05
5.46638e-08
1.66333e-05
4.47982e-08
1.66417e-05
3.67128e-08
1.6651e-05
3.01608e-08
2.53219e-08
1.66597e-05
1.75269e-05
2.99286e-08
1.75185e-05
3.45769e-08
1.75023e-05
9.55128e-08
1.74901e-05
1.53847e-07
1.7469e-05
1.45535e-07
1.74532e-05
1.3662e-07
1.74455e-05
1.63665e-07
1.74354e-05
1.76991e-07
1.74225e-05
1.59448e-07
1.74129e-05
1.3704e-07
1.74084e-05
1.22972e-07
1.74068e-05
1.11386e-07
1.74055e-05
9.72707e-08
1.7406e-05
7.94087e-08
1.74093e-05
6.26707e-08
1.74153e-05
4.87236e-08
1.74231e-05
3.69659e-08
1.74322e-05
2.76145e-08
1.74421e-05
2.02651e-08
1.5065e-08
1.74524e-05
1.83648e-05
3.34492e-08
1.83433e-05
5.61476e-08
1.83368e-05
1.01973e-07
1.83259e-05
1.6477e-07
1.83045e-05
1.66889e-07
1.82861e-05
1.55021e-07
1.82762e-05
1.73629e-07
1.8266e-05
1.87163e-07
1.82527e-05
1.72719e-07
1.82416e-05
1.482e-07
1.82353e-05
1.29237e-07
1.82327e-05
1.13962e-07
1.82313e-05
9.87175e-08
1.82317e-05
7.89897e-08
1.82347e-05
5.96065e-08
1.82407e-05
4.27895e-08
1.8249e-05
2.86632e-08
1.82589e-05
1.76752e-08
1.82699e-05
9.30042e-09
3.55072e-09
1.82814e-05
1.92429e-05
3.69126e-08
1.92276e-05
7.14395e-08
1.92124e-05
1.17175e-07
1.92012e-05
1.76049e-07
1.91798e-05
1.88247e-07
1.91592e-05
1.75642e-07
1.91465e-05
1.86329e-07
1.91356e-05
1.98046e-07
1.9122e-05
1.86352e-07
1.91093e-05
1.60904e-07
1.9101e-05
1.3754e-07
1.90968e-05