/*--------------------------------*- C++ -*----------------------------------*\
| =========                 |                                                 |
| \\      /  F ield         | OpenFOAM: The Open Source CFD Toolbox           |
|  \\    /   O peration     | Version:  v2012                                 |
|   \\  /    A nd           | Website:  www.openfoam.com                      |
|    \\/     M anipulation  |                                                 |
\*---------------------------------------------------------------------------*/
FoamFile
{
    version     2.0;
    format      ascii;
    class       volVectorField;
    location    "3.8";
    object      U;
}
// * * * * * * * * * * * * * * * * * * * * * * * * * * * * * * * * * * * * * //

dimensions      [0 1 -1 0 0 0 0];


internalField   nonuniform List<vector> 
17600
(
(0.822674 -0.00136678 0)
(1.17494 -0.000332794 0)
(0.83974 0.0020433 0)
(1.16512 0.00137964 0)
(0.857889 0.00220522 0)
(1.14197 -6.53136e-05 0)
(0.865338 0.00116979 0)
(1.12067 -0.00129604 0)
(0.87079 0.00235218 0)
(1.10494 -0.00306258 0)
(0.872337 0.00445493 0)
(1.09543 -0.00464603 0)
(0.86695 0.00538279 0)
(1.08982 -0.00396748 0)
(0.858672 0.0045223 0)
(1.08532 -0.00255611 0)
(0.848021 0.00396904 0)
(1.08206 -0.00161878 0)
(0.830336 0.00370197 0)
(1.07904 -0.000584217 0)
(0.833964 -0.00144043 0)
(1.16393 -0.000270481 0)
(0.852122 0.00193478 0)
(1.1521 0.00143003 0)
(0.873167 0.00219529 0)
(1.1265 7.86009e-05 0)
(0.883134 0.0011818 0)
(1.10261 -0.0011362 0)
(0.891081 0.00231693 0)
(1.08298 -0.00283948 0)
(0.896097 0.00433892 0)
(1.06735 -0.00430214 0)
(0.897141 0.00521178 0)
(1.0521 -0.00362294 0)
(0.901823 0.00445206 0)
(1.03271 -0.0023852 0)
(0.91307 0.00424565 0)
(1.00617 -0.00187575 0)
(0.92951 0.00501805 0)
(0.966279 -0.00152402 0)
(0.855652 -0.00151405 0)
(1.1415 -0.000229777 0)
(0.876299 0.00183675 0)
(1.12695 0.0014509 0)
(0.901035 0.00223943 0)
(1.09923 0.000170011 0)
(0.913845 0.00126129 0)
(1.07302 -0.00103716 0)
(0.924015 0.00237633 0)
(1.05088 -0.0027111 0)
(0.931682 0.00435664 0)
(1.03279 -0.00410832 0)
(0.936824 0.00521171 0)
(1.01514 -0.0034735 0)
(0.94616 0.00453897 0)
(0.996129 -0.00231055 0)
(0.957325 0.00443183 0)
(0.978241 -0.00170464 0)
(0.963768 0.00526064 0)
(0.962103 -0.000280476 0)
(0.884811 -0.00155663 0)
(1.11051 -0.000247155 0)
(0.906839 0.0018112 0)
(1.0945 0.00138942 0)
(0.9334 0.0023485 0)
(1.06786 0.000167995 0)
(0.946752 0.00142191 0)
(1.04289 -0.00103507 0)
(0.955739 0.00253256 0)
(1.02323 -0.00269421 0)
(0.961781 0.00448769 0)
(1.00936 -0.00405348 0)
(0.965291 0.00534735 0)
(0.997526 -0.00346556 0)
(0.97099 0.00471698 0)
(0.986993 -0.00229962 0)
(0.974893 0.00457678 0)
(0.979597 -0.00152795 0)
(0.973337 0.00533513 0)
(0.97259 0.000829893 0)
(0.916581 -0.00156377 0)
(1.0768 -0.000312026 0)
(0.936703 0.00183934 0)
(1.06181 0.00126428 0)
(0.961688 0.00248486 0)
(1.04049 0.000118844 0)
(0.97267 0.00160985 0)
(1.02085 -0.00105572 0)
(0.977634 0.00269354 0)
(1.00713 -0.00267997 0)
(0.979826 0.00458756 0)
(0.999482 -0.00398601 0)
(0.980228 0.00541804 0)
(0.993462 -0.00341815 0)
(0.982284 0.00479544 0)
(0.988189 -0.00223306 0)
(0.982594 0.00461769 0)
(0.984079 -0.00131499 0)
(0.979404 0.00535915 0)
(0.978221 0.00186887 0)
(0.945766 -0.00154064 0)
(1.04669 -0.000393006 0)
(0.960621 0.00189028 0)
(1.03507 0.00111981 0)
(0.981179 0.00259845 0)
(1.02161 6.60434e-05 0)
(0.988554 0.00176608 0)
(1.00887 -0.00104951 0)
(0.989476 0.00280202 0)
(1.00084 -0.00262814 0)
(0.988725 0.00461145 0)
(0.997408 -0.00387911 0)
(0.987433 0.00538711 0)
(0.994254 -0.00330804 0)
(0.987981 0.00475149 0)
(0.990863 -0.0020901 0)
(0.987327 0.00455619 0)
(0.987474 -0.00101646 0)
(0.983986 0.00532894 0)
(0.982162 0.00288368 0)
(0.96871 -0.00149989 0)
(1.02432 -0.000458021 0)
(0.976769 0.00194021 0)
(1.01708 0.000990262 0)
(0.991933 0.00265879 0)
(1.01106 2.79391e-05 0)
(0.99643 0.00186689 0)
(1.00412 -0.00101561 0)
(0.995127 0.00285719 0)
(0.999755 -0.00255422 0)
(0.993227 0.0045865 0)
(0.99829 -0.0037588 0)
(0.991552 0.00530601 0)
(0.996239 -0.00316635 0)
(0.991735 0.00463944 0)
(0.993532 -0.00187662 0)
(0.990891 0.00440686 0)
(0.990475 -0.000612325 0)
(0.987581 0.00522964 0)
(0.985717 0.00386925 0)
(0.984233 -0.00145606 0)
(1.01043 -0.000490434 0)
(0.986268 0.00197516 0)
(1.00711 0.000889362 0)
(0.996782 0.00266549 0)
(1.00616 8.50722e-07 0)
(0.999848 0.00191861 0)
(1.003 -0.000972265 0)
(0.998112 0.00287743 0)
(1.00059 -0.00247552 0)
(0.996227 0.00453755 0)
(0.999982 -0.0036349 0)
(0.994699 0.00520537 0)
(0.998461 -0.00301019 0)
(0.994865 0.00450086 0)
(0.996151 -0.00161731 0)
(0.994012 0.00419936 0)
(0.993354 -0.000128179 0)
(0.990811 0.00506595 0)
(0.989047 0.00479572 0)
(0.993285 -0.00141858 0)
(1.00319 -0.000492951 0)
(0.991463 0.00199231 0)
(1.00266 0.000815261 0)
(0.998773 0.00263646 0)
(1.00418 -2.42123e-05 0)
(1.00143 0.00193711 0)
(1.00316 -0.000933722 0)
(1.00021 0.00287637 0)
(1.00186 -0.00239859 0)
(0.998782 0.00447205 0)
(1.00172 -0.00350364 0)
(0.997511 0.00508248 0)
(1.0006 -0.0028319 0)
(0.997718 0.00433399 0)
(0.998624 -0.0013252 0)
(0.996888 0.0039605 0)
(0.996055 0.00040873 0)
(0.993822 0.0048611 0)
(0.992144 0.00563021 0)
(0.997838 -0.00138941 0)
(0.999982 -0.000479468 0)
(0.994404 0.00199558 0)
(1.00119 0.000759708 0)
(0.999805 0.00259154 0)
(1.00343 -5.15648e-05 0)
(1.00241 0.00193535 0)
(1.00357 -0.000905458 0)
(1.00193 0.0028602 0)
(1.003 -0.00232503 0)
(1.00102 0.00439126 0)
(1.00321 -0.00336305 0)
(0.999985 0.00493147 0)
(1.00245 -0.00262413 0)
(1.00021 0.00412489 0)
(1.00078 -0.000993655 0)
(0.999397 0.00368867 0)
(0.99842 0.000982701 0)
(0.996467 0.00466043 0)
(0.994878 0.00634917 0)
(0.999823 -0.00136572 0)
(0.9987 -0.000463872 0)
(0.996261 0.00198936 0)
(1.00102 0.000714603 0)
(1.00061 0.00254376 0)
(1.00314 -8.05851e-05 0)
(1.00313 0.00192127 0)
(1.0039 -0.000887075 0)
(1.00328 0.00283126 0)
(1.00384 -0.00225402 0)
(1.00281 0.00429454 0)
(1.00434 -0.0032116 0)
(1.00196 0.00475003 0)
(1.00389 -0.00238439 0)
(1.00218 0.00386762 0)
(1.00249 -0.000616702 0)
(1.00138 0.00338287 0)
(1.0003 0.00156739 0)
(0.998589 0.00450832 0)
(0.997105 0.00693506 0)
(1.00058 -0.00134386 0)
(0.998181 -0.000454128 0)
(0.997519 0.00197623 0)
(1.00127 0.000674313 0)
(1.0013 0.00249861 0)
(1.00302 -0.000108935 0)
(1.00363 0.00189943 0)
(1.00409 -0.000875486 0)
(1.0042 0.00279056 0)
(1.00439 -0.00218277 0)
(1.00407 0.00417959 0)
(1.00511 -0.00304454 0)
(1.00335 0.00453409 0)
(1.0049 -0.00210978 0)
(1.00358 0.00356674 0)
(1.00369 -0.000211063 0)
(1.00279 0.00306466 0)
(1.00165 0.00213442 0)
(1.00015 0.00443274 0)
(0.998779 0.00737353 0)
(1.00085 -0.00132154 0)
(0.997937 -0.000452247 0)
(0.998356 0.00195765 0)
(1.00158 0.000635461 0)
(1.00184 0.00245684 0)
(1.00297 -0.000134761 0)
(1.00394 0.00187228 0)
(1.00417 -0.000866831 0)
(1.00474 0.00273879 0)
(1.00471 -0.00210792 0)
(1.00483 0.00404466 0)
(1.00558 -0.00285825 0)
(1.00422 0.00428301 0)
(1.00552 -0.00180339 0)
(1.00447 0.00323662 0)
(1.00445 0.000204212 0)
(1.00371 0.00275734 0)
(1.00254 0.00265143 0)
(1.00121 0.0044519 0)
(0.999969 0.00767184 0)
(1.00095 -0.00129798 0)
(0.997807 -0.000456997 0)
(0.998884 0.00193482 0)
(1.00182 0.000596207 0)
(1.00221 0.00241715 0)
(1.00295 -0.000157244 0)
(1.00411 0.00184078 0)
(1.00421 -0.000857522 0)
(1.00501 0.00267602 0)
(1.00489 -0.00202558 0)
(1.00524 0.00388847 0)
(1.00585 -0.00265175 0)
(1.00472 0.0040013 0)
(1.00587 -0.00147259 0)
(1.005 0.00288777 0)
(1.00489 0.000627611 0)
(1.00429 0.00249302 0)
(1.0031 0.00309125 0)
(1.00193 0.00456692 0)
(1.00081 0.00785595 0)
(1.00098 -0.00127325 0)
(0.997741 -0.000466245 0)
(0.999204 0.0019087 0)
(1.00199 0.000555737 0)
(1.00244 0.00237775 0)
(1.00295 -0.000176257 0)
(1.00419 0.00180487 0)
(1.00422 -0.000844511 0)
(1.00512 0.00260111 0)
(1.00499 -0.00193113 0)
(1.00543 0.00370906 0)
(1.00599 -0.00242367 0)
(1.00499 0.00369215 0)
(1.00604 -0.00112348 0)
(1.00532 0.00253056 0)
(1.00512 0.00104388 0)
(1.00465 0.00229915 0)
(1.00346 0.00344376 0)
(1.00242 0.00476384 0)
(1.00143 0.00795917 0)
(1.00101 -0.00124779 0)
(0.997716 -0.000477968 0)
(0.999397 0.00187999 0)
(1.0021 0.000513801 0)
(1.00258 0.00233681 0)
(1.00295 -0.000191353 0)
(1.00422 0.00176307 0)
(1.00423 -0.000824407 0)
(1.00516 0.00251211 0)
(1.00504 -0.00182198 0)
(1.00551 0.00350685 0)
(1.00605 -0.00217453 0)
(1.00514 0.00335874 0)
(1.00611 -0.000762929 0)
(1.00552 0.00218168 0)
(1.00524 0.00142227 0)
(1.00489 0.00218552 0)
(1.00372 0.00371576 0)
(1.0028 0.0050192 0)
(1.00193 0.00801545 0)
(1.00102 -0.00122198 0)
(0.997715 -0.000490721 0)
(0.999519 0.00184908 0)
(1.00216 0.000470852 0)
(1.00265 0.00229218 0)
(1.00294 -0.000201494 0)
(1.00423 0.00171309 0)
(1.00423 -0.000795016 0)
(1.00516 0.00240791 0)
(1.00507 -0.00169675 0)
(1.00554 0.0032818 0)
(1.00608 -0.00190639 0)
(1.00524 0.00300892 0)
(1.00612 -0.000404421 0)
(1.00567 0.00185967 0)
(1.00531 0.00174563 0)
(1.00506 0.002155 0)
(1.00394 0.00391991 0)
(1.0031 0.00530493 0)
(1.00235 0.00805684 0)
(1.00104 -0.00119617 0)
(0.997728 -0.000503099 0)
(0.999604 0.00181551 0)
(1.00219 0.000427629 0)
(1.0027 0.00224246 0)
(1.00292 -0.000206071 0)
(1.00423 0.00165403 0)
(1.00422 -0.000755835 0)
(1.00514 0.00228806 0)
(1.00509 -0.00155553 0)
(1.00554 0.00303664 0)
(1.00608 -0.00162642 0)
(1.00531 0.00265531 0)
(1.00609 -6.70444e-05 0)
(1.00579 0.0015837 0)
(1.00535 0.0020061 0)
(1.00521 0.00220176 0)
(1.00414 0.0040688 0)
(1.00338 0.00559401 0)
(1.00274 0.00810413 0)
(1.00106 -0.00117088 0)
(0.997751 -0.000513093 0)
(0.999671 0.00177884 0)
(1.0022 0.000384662 0)
(1.00272 0.00218583 0)
(1.0029 -0.000203363 0)
(1.00423 0.00158355 0)
(1.00422 -0.000703851 0)
(1.00513 0.00215067 0)
(1.0051 -0.00139954 0)
(1.00555 0.00277658 0)
(1.00606 -0.00134443 0)
(1.00537 0.00231179 0)
(1.00605 0.000238251 0)
(1.0059 0.00136367 0)
(1.00539 0.00220516 0)
(1.00533 0.00231489 0)
(1.00434 0.00417973 0)
(1.00365 0.0058661 0)
(1.0031 0.00816345 0)
(1.00108 -0.00114651 0)
(0.99778 -0.000520521 0)
(0.999729 0.00173811 0)
(1.0022 0.000343909 0)
(1.00274 0.00211932 0)
(1.00287 -0.000191085 0)
(1.00422 0.00149905 0)
(1.00421 -0.000637067 0)
(1.00511 0.00199569 0)
(1.0051 -0.00123034 0)
(1.00554 0.00250443 0)
(1.00604 -0.00106581 0)
(1.00544 0.00198548 0)
(1.00601 0.000508392 0)
(1.006 0.00120508 0)
(1.00543 0.00235061 0)
(1.00545 0.00248011 0)
(1.00455 0.00427433 0)
(1.00392 0.00611076 0)
(1.00344 0.0082378 0)
(1.00109 -0.00112323 0)
(0.997815 -0.000525181 0)
(0.999781 0.00169134 0)
(1.0022 0.000307257 0)
(1.00275 0.00204177 0)
(1.00284 -0.000168713 0)
(1.00422 0.0014 0)
(1.0042 -0.000557291 0)
(1.00509 0.00182679 0)
(1.00509 -0.0010544 0)
(1.00554 0.00222933 0)
(1.00601 -0.000802127 0)
(1.0055 0.00168702 0)
(1.00597 0.000733419 0)
(1.00609 0.00110041 0)
(1.0055 0.00244763 0)
(1.00557 0.00267829 0)
(1.00477 0.00437497 0)
(1.00419 0.00632996 0)
(1.00377 0.00833428 0)
(1.0011 -0.00110101 0)
(0.997857 -0.000524907 0)
(0.999829 0.00163662 0)
(1.0022 0.000275172 0)
(1.00275 0.00195204 0)
(1.0028 -0.000135426 0)
(1.00421 0.0012862 0)
(1.00419 -0.000467173 0)
(1.00507 0.00164904 0)
(1.00509 -0.000881001 0)
(1.00555 0.00196455 0)
(1.00597 -0.000567807 0)
(1.00556 0.0014256 0)
(1.00593 0.000908637 0)
(1.00618 0.00103662 0)
(1.00558 0.00250498 0)
(1.00569 0.00288915 0)
(1.005 0.00449823 0)
(1.00447 0.00653093 0)
(1.00409 0.00845836 0)
(1.00111 -0.00108053 0)
(0.997906 -0.000517488 0)
(0.99987 0.00157234 0)
(1.0022 0.000249014 0)
(1.00276 0.00184765 0)
(1.00278 -9.10428e-05 0)
(1.0042 0.00115967 0)
(1.00418 -0.000370787 0)
(1.00505 0.00146814 0)
(1.00509 -0.000716017 0)
(1.00555 0.00171555 0)
(1.00594 -0.000363248 0)
(1.00562 0.00119366 0)
(1.00591 0.00104107 0)
(1.00626 0.00100328 0)
(1.00568 0.00253667 0)
(1.00582 0.00309002 0)
(1.00524 0.0046446 0)
(1.00477 0.00671459 0)
(1.0044 0.00861123 0)
(1.0011 -0.00106326 0)
(0.997965 -0.000498908 0)
(0.999903 0.00149579 0)
(1.00222 0.000233186 0)
(1.00275 0.00172514 0)
(1.00275 -3.39289e-05 0)
(1.00418 0.00101888 0)
(1.00418 -0.000269956 0)
(1.00502 0.00128643 0)
(1.00508 -0.000560888 0)
(1.00555 0.00148156 0)
(1.00591 -0.000185642 0)
(1.00567 0.000991754 0)
(1.00589 0.00113124 0)
(1.00634 0.000993486 0)
(1.0058 0.00254436 0)
(1.00596 0.00326113 0)
(1.00549 0.00479093 0)
(1.00507 0.00687764 0)
(1.00471 0.0087985 0)
(1.00108 -0.0010468 0)
(0.998035 -0.000474316 0)
(0.999925 0.00140776 0)
(1.00223 0.000221785 0)
(1.00274 0.00159494 0)
(1.00273 2.24802e-05 0)
(1.00416 0.000880348 0)
(1.00418 -0.000181114 0)
(1.00499 0.0011247 0)
(1.00508 -0.000442952 0)
(1.00554 0.00129412 0)
(1.00589 -6.69987e-05 0)
(1.00572 0.000853293 0)
(1.00589 0.00115485 0)
(1.00641 0.001026 0)
(1.00594 0.00249335 0)
(1.00611 0.00339487 0)
(1.00576 0.00484059 0)
(1.00539 0.00699409 0)
(1.00503 0.00899891 0)
(1.00105 -0.00103251 0)
(0.998117 -0.000442516 0)
(0.999937 0.00130505 0)
(1.00226 0.000218613 0)
(1.00272 0.00144993 0)
(1.00272 8.72281e-05 0)
(1.00413 0.000740298 0)
(1.00418 -0.000100396 0)
(1.00495 0.000984592 0)
(1.00509 -0.000352985 0)
(1.00553 0.00113356 0)
(1.00586 2.18971e-05 0)
(1.00576 0.000733799 0)
(1.0059 0.00116125 0)
(1.00648 0.00105594 0)
(1.0061 0.00242181 0)
(1.00627 0.00345048 0)
(1.00604 0.00481489 0)
(1.00575 0.00695197 0)
(1.00537 0.00901505 0)
(1.00101 -0.00102293 0)
(0.998207 -0.000396772 0)
(0.99994 0.00118797 0)
(1.0023 0.000222423 0)
(1.00269 0.00129431 0)
(1.00271 0.000151851 0)
(1.00409 0.000606978 0)
(1.00419 -3.62548e-05 0)
(1.00491 0.000863746 0)
(1.00509 -0.000280896 0)
(1.00551 0.00097719 0)
(1.00584 0.000103524 0)
(1.0058 0.000605655 0)
(1.00591 0.0011765 0)
(1.00654 0.0010825 0)
(1.00626 0.00238004 0)
(1.00644 0.00352677 0)
(1.00632 0.00486857 0)
(1.0061 0.00693011 0)
(1.00574 0.00905865 0)
(1.00096 -0.0010127 0)
(0.998302 -0.000342222 0)
(0.999935 0.00106029 0)
(1.00233 0.000224627 0)
(1.00266 0.00113941 0)
(1.0027 0.000201554 0)
(1.00405 0.00049637 0)
(1.0042 -1.65677e-06 0)
(1.00486 0.000771968 0)
(1.0051 -0.000245802 0)
(1.0055 0.000854366 0)
(1.00582 0.00015109 0)
(1.00583 0.000513742 0)
(1.00595 0.0011656 0)
(1.0066 0.00119504 0)
(1.00644 0.00241205 0)
(1.00662 0.00370483 0)
(1.00661 0.00501959 0)
(1.00647 0.00700103 0)
(1.00614 0.00913199 0)
(1.0009 -0.00100615 0)
(0.998397 -0.00027456 0)
(0.999926 0.000923942 0)
(1.00237 0.0002248 0)
(1.00263 0.000984142 0)
(1.00269 0.00024039 0)
(1.004 0.000404311 0)
(1.00421 1.42921e-05 0)
(1.0048 0.000691752 0)
(1.0051 -0.000208207 0)
(1.00547 0.000723282 0)
(1.0058 0.000228128 0)
(1.00585 0.000494006 0)
(1.00599 0.0012185 0)
(1.00667 0.00139657 0)
(1.00663 0.00255757 0)
(1.00682 0.00391578 0)
(1.0069 0.00521945 0)
(1.00685 0.00708256 0)
(1.00655 0.0091794 0)
(1.00085 -0.00100271 0)
(0.998487 -0.000198208 0)
(0.999915 0.00078635 0)
(1.0024 0.000213125 0)
(1.00259 0.000844383 0)
(1.00268 0.000247665 0)
(1.00395 0.000338856 0)
(1.00422 3.03271e-06 0)
(1.00475 0.000620035 0)
(1.00509 -0.000155894 0)
(1.00546 0.000598776 0)
(1.00579 0.000351376 0)
(1.00588 0.000570894 0)
(1.00605 0.00134564 0)
(1.00675 0.00161933 0)
(1.00682 0.00272847 0)
(1.00703 0.00410384 0)
(1.00719 0.00539039 0)
(1.00723 0.00710958 0)
(1.00697 0.00912093 0)
(1.0008 -0.000997534 0)
(0.998571 -0.00012068 0)
(0.999904 0.000647981 0)
(1.00242 0.000186041 0)
(1.00256 0.000720381 0)
(1.00267 0.000232091 0)
(1.0039 0.000283401 0)
(1.00422 -1.26333e-05 0)
(1.0047 0.000550958 0)
(1.00508 -8.4018e-05 0)
(1.00545 0.000555824 0)
(1.00579 0.000496581 0)
(1.00591 0.000708164 0)
(1.00612 0.00147731 0)
(1.00683 0.00180883 0)
(1.00702 0.00284601 0)
(1.00725 0.00422513 0)
(1.00747 0.00550665 0)
(1.0076 0.00709472 0)
(1.00738 0.00898822 0)
(1.00076 -0.000993665 0)
(0.998644 -3.95562e-05 0)
(0.999892 0.000522051 0)
(1.00244 0.000127786 0)
(1.00253 0.000617903 0)
(1.00265 0.000190863 0)
(1.00384 0.000238637 0)
(1.00422 -2.05466e-05 0)
(1.00465 0.0004843 0)
(1.00507 3.83683e-05 0)
(1.00544 0.000585856 0)
(1.00579 0.000645553 0)
(1.00595 0.0008502 0)
(1.00619 0.00159494 0)
(1.00691 0.00196732 0)
(1.00722 0.00293149 0)
(1.00748 0.00430519 0)
(1.00776 0.00560823 0)
(1.00796 0.00708752 0)
(1.00779 0.00884225 0)
(1.00072 -0.00098892 0)
(0.998706 3.75379e-05 0)
(0.999879 0.000419656 0)
(1.00245 3.90397e-05 0)
(1.0025 0.000535376 0)
(1.00263 0.000120633 0)
(1.00379 0.000194843 0)
(1.00421 -5.36234e-06 0)
(1.00462 0.000458205 0)
(1.00506 0.000199439 0)
(1.00544 0.000649012 0)
(1.00579 0.00077052 0)
(1.00599 0.000966979 0)
(1.00626 0.00169512 0)
(1.007 0.00211057 0)
(1.00742 0.003012 0)
(1.00772 0.0043616 0)
(1.00805 0.00569335 0)
(1.00831 0.00708355 0)
(1.00819 0.008689 0)
(1.00068 -0.000980899 0)
(0.99876 0.000102027 0)
(0.999862 0.00034766 0)
(1.00246 -9.08758e-05 0)
(1.00248 0.00045693 0)
(1.00259 5.16149e-05 0)
(1.00375 0.000140133 0)
(1.0042 6.02485e-05 0)
(1.00459 0.000489868 0)
(1.00504 0.000362235 0)
(1.00544 0.0007377 0)
(1.00579 0.000879382 0)
(1.00602 0.00107785 0)
(1.00633 0.00179132 0)
(1.00709 0.00225751 0)
(1.00762 0.0030956 0)
(1.00798 0.00439928 0)
(1.00834 0.00574397 0)
(1.00865 0.00706585 0)
(1.00858 0.00852861 0)
(1.00066 -0.000970443 0)
(0.998805 0.000151954 0)
(0.999838 0.000309162 0)
(1.00246 -0.000252012 0)
(1.00245 0.000377986 0)
(1.00255 -8.79958e-06 0)
(1.00371 0.000106269 0)
(1.00419 0.000178794 0)
(1.00456 0.000555936 0)
(1.00503 0.000509154 0)
(1.00543 0.000839834 0)
(1.00578 0.000982396 0)
(1.00607 0.00118375 0)
(1.00641 0.00188705 0)
(1.00719 0.0024089 0)
(1.00781 0.00318388 0)
(1.00825 0.00441737 0)
(1.00864 0.00575285 0)
(1.00898 0.00702598 0)
(1.00895 0.00836502 0)
(1.00063 -0.000952627 0)
(0.998846 0.00017486 0)
(0.999806 0.000312096 0)
(1.00245 -0.000424794 0)
(1.00243 0.000302751 0)
(1.00251 -5.12683e-05 0)
(1.00369 9.96895e-05 0)
(1.00418 0.000315422 0)
(1.00454 0.000632583 0)
(1.00501 0.00062439 0)
(1.00543 0.000935708 0)
(1.00578 0.00108374 0)
(1.00611 0.00127497 0)
(1.0065 0.00197325 0)
(1.00729 0.00255295 0)
(1.008 0.0032764 0)
(1.00851 0.00441668 0)
(1.00894 0.00571955 0)
(1.00931 0.00695736 0)
(1.0093 0.00819713 0)
(1.0006 -0.000930351 0)
(0.998885 0.000173703 0)
(0.999766 0.000350078 0)
(1.00243 -0.000587724 0)
(1.00242 0.000220444 0)
(1.00247 -3.59575e-05 0)
(1.00367 9.35583e-05 0)
(1.00417 0.000433504 0)
(1.00451 0.000705804 0)
(1.005 0.000705474 0)
(1.00542 0.0010211 0)
(1.00577 0.0011935 0)
(1.00615 0.00136473 0)
(1.00659 0.00204668 0)
(1.0074 0.00268427 0)
(1.00817 0.00337573 0)
(1.00878 0.00440886 0)
(1.00925 0.00565125 0)
(1.00963 0.00685586 0)
(1.00964 0.00802081 0)
(1.00058 -0.000904395 0)
(0.998925 0.000149116 0)
(0.999717 0.0004109 0)
(1.00241 -0.000714144 0)
(1.00242 0.000138884 0)
(1.00243 2.15554e-05 0)
(1.00365 8.7057e-05 0)
(1.00416 0.000530841 0)
(1.00449 0.000787144 0)
(1.00498 0.000774914 0)
(1.00542 0.00110245 0)
(1.00577 0.00131953 0)
(1.0062 0.00147113 0)
(1.00669 0.00210579 0)
(1.00751 0.0027929 0)
(1.00834 0.00347823 0)
(1.00903 0.00440951 0)
(1.00956 0.00556438 0)
(1.00996 0.00672376 0)
(1.00997 0.00782961 0)
(1.00055 -0.000869538 0)
(0.998969 9.10865e-05 0)
(0.999663 0.000493142 0)
(1.00237 -0.00080234 0)
(1.00242 5.79106e-05 0)
(1.00238 9.45075e-05 0)
(1.00364 8.68709e-05 0)
(1.00416 0.000609041 0)
(1.00446 0.000886231 0)
(1.00496 0.000847322 0)
(1.00543 0.00117547 0)
(1.00577 0.00145144 0)
(1.00624 0.001592 0)
(1.0068 0.00215255 0)
(1.00764 0.00286718 0)
(1.00851 0.00357304 0)
(1.00927 0.00442645 0)
(1.00986 0.00547823 0)
(1.01029 0.00657076 0)
(1.0103 0.00761954 0)
(1.00052 -0.000826632 0)
(0.999018 2.11832e-06 0)
(0.999608 0.000581918 0)
(1.00233 -0.000843212 0)
(1.00243 -2.13002e-05 0)
(1.00235 0.000185943 0)
(1.00362 0.000103347 0)
(1.00417 0.000668384 0)
(1.00443 0.000997997 0)
(1.00494 0.000926823 0)
(1.00544 0.00123086 0)
(1.00577 0.00157439 0)
(1.00627 0.0017193 0)
(1.0069 0.00219928 0)
(1.00778 0.00291036 0)
(1.00869 0.00364795 0)
(1.0095 0.00445203 0)
(1.01015 0.00540159 0)
(1.01061 0.00640689 0)
(1.01062 0.0073909 0)
(1.0005 -0.000778588 0)
(0.999074 -0.000102213 0)
(0.999555 0.000666928 0)
(1.00228 -0.000838976 0)
(1.00245 -9.5131e-05 0)
(1.00232 0.00029546 0)
(1.00361 0.00014231 0)
(1.00419 0.000709481 0)
(1.0044 0.00111368 0)
(1.00492 0.00102047 0)
(1.00546 0.00127563 0)
(1.00579 0.00168506 0)
(1.0063 0.00185648 0)
(1.007 0.00225875 0)
(1.00794 0.00293296 0)
(1.00887 0.00369103 0)
(1.00973 0.00446732 0)
(1.01042 0.00532839 0)
(1.01092 0.00623544 0)
(1.01094 0.00714353 0)
(1.00047 -0.000727925 0)
(0.999137 -0.000212805 0)
(0.999507 0.000734041 0)
(1.00222 -0.000800774 0)
(1.00248 -0.000157115 0)
(1.00229 0.000421635 0)
(1.00359 0.000208296 0)
(1.00422 0.000732542 0)
(1.00438 0.0012252 0)
(1.00489 0.00112884 0)
(1.00549 0.00131573 0)
(1.00582 0.001775 0)
(1.00633 0.00199944 0)
(1.0071 0.00233362 0)
(1.00809 0.00294124 0)
(1.00906 0.00369686 0)
(1.00995 0.00445839 0)
(1.01069 0.00525108 0)
(1.01122 0.00606009 0)
(1.01125 0.00688184 0)
(1.00043 -0.0006732 0)
(0.999206 -0.000331354 0)
(0.999468 0.000773445 0)
(1.00215 -0.000743125 0)
(1.00252 -0.000183492 0)
(1.00228 0.000574427 0)
(1.00357 0.000306598 0)
(1.00426 0.000743572 0)
(1.00438 0.00132573 0)
(1.00486 0.00125249 0)
(1.00551 0.00135539 0)
(1.00586 0.00183762 0)
(1.00637 0.00213641 0)
(1.00719 0.00242405 0)
(1.00825 0.00294434 0)
(1.00927 0.00367037 0)
(1.01018 0.00442091 0)
(1.01094 0.00516503 0)
(1.0115 0.00588551 0)
(1.01154 0.00661489 0)
(1.0004 -0.000614462 0)
(0.999282 -0.000451795 0)
(0.999439 0.000774895 0)
(1.00208 -0.000666943 0)
(1.00257 -0.000169193 0)
(1.00228 0.000754145 0)
(1.00353 0.000443454 0)
(1.0043 0.000750413 0)
(1.00438 0.00140475 0)
(1.00483 0.00138615 0)
(1.00553 0.0014012 0)
(1.00593 0.00187143 0)
(1.00642 0.00225376 0)
(1.00726 0.00252542 0)
(1.0084 0.00295081 0)
(1.00948 0.003618 0)
(1.01041 0.00435041 0)
(1.01119 0.00506146 0)
(1.01176 0.00570984 0)
(1.01182 0.00634869 0)
(1.00037 -0.000553629 0)
(0.999361 -0.000580717 0)
(0.999423 0.000742083 0)
(1.00202 -0.000567206 0)
(1.00264 -0.000125501 0)
(1.00228 0.000941948 0)
(1.00349 0.000623346 0)
(1.00433 0.000773397 0)
(1.0044 0.00147013 0)
(1.00479 0.00153732 0)
(1.00555 0.00147388 0)
(1.006 0.0018898 0)
(1.00648 0.00234447 0)
(1.00734 0.00263084 0)
(1.00854 0.00296948 0)
(1.00968 0.00355179 0)
(1.01065 0.0042484 0)
(1.01143 0.00493472 0)
(1.01201 0.00553016 0)
(1.01207 0.00608836 0)
(1.00033 -0.000481139 0)
(0.999441 -0.000716119 0)
(0.999425 0.000720684 0)
(1.00197 -0.000426751 0)
(1.00272 -0.00010171 0)
(1.00231 0.00108677 0)
(1.00344 0.000819832 0)
(1.00437 0.000814283 0)
(1.00444 0.0015206 0)
(1.00476 0.00169883 0)
(1.00556 0.00158258 0)
(1.00608 0.00190868 0)
(1.00656 0.00240656 0)
(1.00741 0.00273264 0)
(1.00866 0.00300908 0)
(1.00988 0.00349129 0)
(1.0109 0.00412719 0)
(1.01168 0.00478538 0)
(1.01225 0.00534271 0)
(1.01231 0.0058336 0)
(1.0003 -0.000394024 0)
(0.999524 -0.000798543 0)
(0.999449 0.000718537 0)
(1.00192 -0.000259239 0)
(1.00281 -0.000104834 0)
(1.00236 0.00118478 0)
(1.00338 0.00103029 0)
(1.00439 0.00087094 0)
(1.0045 0.00153947 0)
(1.00475 0.00183355 0)
(1.00555 0.00169779 0)
(1.00616 0.00191687 0)
(1.00667 0.00241738 0)
(1.00749 0.00279691 0)
(1.00876 0.00304458 0)
(1.01006 0.00342921 0)
(1.01114 0.00398311 0)
(1.01193 0.00460184 0)
(1.01248 0.0051311 0)
(1.01253 0.00557201 0)
(1.00026 -0.000366248 0)
(0.999607 -0.000743972 0)
(0.999486 0.000768836 0)
(1.00186 -9.40602e-05 0)
(1.00289 -0.000122938 0)
(1.00243 0.00122052 0)
(1.00332 0.00122837 0)
(1.0044 0.000946296 0)
(1.00456 0.00154055 0)
(1.00474 0.00195079 0)
(1.00553 0.00183529 0)
(1.00623 0.00194724 0)
(1.00678 0.0024061 0)
(1.00758 0.00283157 0)
(1.00886 0.00307578 0)
(1.01022 0.00337515 0)
(1.01136 0.00383096 0)
(1.01218 0.00438967 0)
(1.01271 0.00488858 0)
(1.01274 0.00529175 0)
(1.00023 -0.000280563 0)
(0.999702 -0.000776974 0)
(0.999525 0.000774441 0)
(1.00178 0.000104718 0)
(1.00297 -0.000104423 0)
(1.00251 0.00125103 0)
(1.00325 0.00144235 0)
(1.00439 0.0010748 0)
(1.00463 0.00155443 0)
(1.00475 0.00205655 0)
(1.00549 0.00199157 0)
(1.00628 0.00200476 0)
(1.00689 0.00238491 0)
(1.00768 0.0028328 0)
(1.00893 0.00309255 0)
(1.01034 0.00332966 0)
(1.01155 0.00368701 0)
(1.01241 0.00416889 0)
(1.01292 0.00462894 0)
(1.01293 0.00500163 0)
(1.0002 -0.000176415 0)
(0.999784 -0.000832396 0)
(0.999599 0.000762448 0)
(1.00172 0.000328032 0)
(1.00304 -4.2728e-05 0)
(1.00262 0.00127052 0)
(1.00321 0.00164623 0)
(1.00436 0.00123633 0)
(1.0047 0.00157448 0)
(1.00477 0.0021355 0)
(1.00546 0.00214705 0)
(1.0063 0.00208457 0)
(1.00699 0.00236356 0)
(1.00779 0.00279983 0)
(1.00902 0.00308146 0)
(1.01044 0.00327954 0)
(1.01172 0.0035478 0)
(1.01262 0.00394214 0)
(1.01314 0.00434991 0)
(1.01311 0.00469145 0)
(1.00016 -0.000135564 0)
(0.999872 -0.000732492 0)
(0.999683 0.000787368 0)
(1.00165 0.000524652 0)
(1.00309 3.32228e-05 0)
(1.00274 0.00125172 0)
(1.00317 0.00181476 0)
(1.00431 0.00142306 0)
(1.00477 0.00160948 0)
(1.00482 0.00219164 0)
(1.00542 0.0022951 0)
(1.0063 0.00218804 0)
(1.00708 0.00235448 0)
(1.00789 0.00274065 0)
(1.00909 0.00303143 0)
(1.01052 0.00320712 0)
(1.01184 0.00340037 0)
(1.0128 0.00370458 0)
(1.01333 0.00404726 0)
(1.01327 0.00435127 0)
(1.00013 -6.90524e-05 0)
(0.999952 -0.000630366 0)
(0.999773 0.000794197 0)
(1.00158 0.000719945 0)
(1.00312 0.000157099 0)
(1.00288 0.00124199 0)
(1.00315 0.00196563 0)
(1.00424 0.001631 0)
(1.00481 0.00165873 0)
(1.00487 0.00220704 0)
(1.00538 0.00240372 0)
(1.00626 0.00229137 0)
(1.00713 0.00234769 0)
(1.00799 0.00265744 0)
(1.00917 0.00293603 0)
(1.01058 0.00310314 0)
(1.01194 0.00324236 0)
(1.01294 0.00346629 0)
(1.01349 0.00373958 0)
(1.01342 0.00400037 0)
(1.00011 -6.6632e-06 0)
(1.00003 -0.000536618 0)
(0.999871 0.000791556 0)
(1.00152 0.0009194 0)
(1.00313 0.000321042 0)
(1.00301 0.00124129 0)
(1.00315 0.00209278 0)
(1.00415 0.00185713 0)
(1.00482 0.00175302 0)
(1.00493 0.0022211 0)
(1.00535 0.00250134 0)
(1.00621 0.002421 0)
(1.00714 0.00237893 0)
(1.00806 0.00258711 0)
(1.00923 0.00282288 0)
(1.01062 0.00297616 0)
(1.01199 0.00307241 0)
(1.01304 0.00322437 0)
(1.01362 0.00342455 0)
(1.01354 0.00363321 0)
(1.00008 6.35391e-05 0)
(1.00009 -0.000457506 0)
(0.999979 0.000768135 0)
(1.00146 0.00110878 0)
(1.00312 0.000533414 0)
(1.00315 0.00127635 0)
(1.00317 0.00222148 0)
(1.00405 0.00210907 0)
(1.0048 0.00190565 0)
(1.00498 0.00224742 0)
(1.00534 0.00257239 0)
(1.00613 0.00254092 0)
(1.00711 0.00242912 0)
(1.0081 0.00251853 0)
(1.00927 0.00268841 0)
(1.01064 0.00281146 0)
(1.01202 0.00287242 0)
(1.0131 0.00296263 0)
(1.01371 0.00309327 0)
(1.01363 0.00324616 0)
(1.00006 0.000115185 0)
(1.00015 -0.000334985 0)
(1.0001 0.00078996 0)
(1.00142 0.00130842 0)
(1.0031 0.000788746 0)
(1.00328 0.00133608 0)
(1.00322 0.00231935 0)
(1.00395 0.00234417 0)
(1.00474 0.00208355 0)
(1.00501 0.00228159 0)
(1.00533 0.00260665 0)
(1.00605 0.00263053 0)
(1.00704 0.00249192 0)
(1.00809 0.00246762 0)
(1.00928 0.00255453 0)
(1.01064 0.00262676 0)
(1.01201 0.00265222 0)
(1.01312 0.00268531 0)
(1.01375 0.00275051 0)
(1.01368 0.00284535 0)
(1.00004 0.000157491 0)
(1.0002 -0.000174141 0)
(1.00022 0.000825141 0)
(1.00139 0.00149031 0)
(1.00305 0.00105443 0)
(1.00339 0.00142771 0)
(1.00329 0.00239325 0)
(1.00386 0.00257348 0)
(1.00465 0.002298 0)
(1.00502 0.00236023 0)
(1.00533 0.0026327 0)
(1.00597 0.00269934 0)
(1.00693 0.0025553 0)
(1.00802 0.00243845 0)
(1.00925 0.00242197 0)
(1.0106 0.00242675 0)
(1.01197 0.00240188 0)
(1.01309 0.00238083 0)
(1.01375 0.00238234 0)
(1.01369 0.00241956 0)
(1.00002 0.000215845 0)
(1.00024 -4.2994e-05 0)
(1.00035 0.000850498 0)
(1.00138 0.0016397 0)
(1.00299 0.00132905 0)
(1.00348 0.00156362 0)
(1.00337 0.00246562 0)
(1.00378 0.00278691 0)
(1.00453 0.00254016 0)
(1.00498 0.0024821 0)
(1.00531 0.00266184 0)
(1.00588 0.00274081 0)
(1.00679 0.00259937 0)
(1.0079 0.00241776 0)
(1.00915 0.00229216 0)
(1.01052 0.00221659 0)
(1.01188 0.00212469 0)
(1.01301 0.00204824 0)
(1.01368 0.00198756 0)
(1.01364 0.00196751 0)
(1.00001 0.0002414 0)
(1.00026 0.000159048 0)
(1.00047 0.000938517 0)
(1.00139 0.00179294 0)
(1.00292 0.0016302 0)
(1.00354 0.00175145 0)
(1.00345 0.0025609 0)
(1.00371 0.00298317 0)
(1.00439 0.00280499 0)
(1.00489 0.00265183 0)
(1.00526 0.00272358 0)
(1.00578 0.00277544 0)
(1.00663 0.00263476 0)
(1.00772 0.00240452 0)
(1.009 0.00218144 0)
(1.01037 0.00200768 0)
(1.01173 0.00184001 0)
(1.01287 0.00169727 0)
(1.01357 0.00157599 0)
(1.01354 0.00149706 0)
(1 0.000280904 0)
(1.00028 0.000341521 0)
(1.00057 0.00103681 0)
(1.0014 0.00193558 0)
(1.00284 0.00193316 0)
(1.00356 0.00198253 0)
(1.00353 0.00267966 0)
(1.00366 0.00316965 0)
(1.00423 0.00307528 0)
(1.00476 0.00286238 0)
(1.00516 0.00282305 0)
(1.00565 0.00281471 0)
(1.00643 0.00266133 0)
(1.00749 0.00238527 0)
(1.00876 0.00207856 0)
(1.01014 0.00179914 0)
(1.01151 0.00154258 0)
(1.01266 0.00132509 0)
(1.01338 0.00113741 0)
(1.01338 0.000999582 0)
(0.999998 0.000329869 0)
(1.00029 0.000489049 0)
(1.00067 0.00114466 0)
(1.00143 0.00207487 0)
(1.00276 0.00223929 0)
(1.00356 0.00225321 0)
(1.00359 0.0028299 0)
(1.00362 0.0033511 0)
(1.00406 0.00334442 0)
(1.00458 0.00310652 0)
(1.00502 0.00296242 0)
(1.00549 0.00287314 0)
(1.0062 0.00268004 0)
(1.0072 0.00236163 0)
(1.00845 0.00196948 0)
(1.00983 0.00158778 0)
(1.01121 0.00122642 0)
(1.01238 0.000919273 0)
(1.01312 0.000656811 0)
(1.01314 0.000453514 0)
(0.999995 0.000352944 0)
(1.00029 0.000698708 0)
(1.00075 0.00129929 0)
(1.00147 0.00222919 0)
(1.00268 0.00254135 0)
(1.00352 0.00256504 0)
(1.00363 0.00302108 0)
(1.00358 0.00354715 0)
(1.00389 0.00362058 0)
(1.00436 0.00338586 0)
(1.00481 0.00315235 0)
(1.00527 0.00296584 0)
(1.00593 0.00271159 0)
(1.00685 0.00233616 0)
(1.00806 0.00186502 0)
(1.00942 0.00137252 0)
(1.01081 0.000897727 0)
(1.012 0.000480399 0)
(1.01277 0.000129092 0)
(1.01282 -0.000151314 0)
(0.999994 0.000382224 0)
(1.00028 0.000897046 0)
(1.00081 0.00147613 0)
(1.00152 0.00238238 0)
(1.00261 0.00283525 0)
(1.00345 0.00290294 0)
(1.00364 0.00326874 0)
(1.00355 0.00376416 0)
(1.00371 0.00391343 0)
(1.0041 0.00370146 0)
(1.00454 0.00339949 0)
(1.00498 0.00311472 0)
(1.00558 0.00277512 0)
(1.00643 0.00232879 0)
(1.00757 0.00176816 0)
(1.0089 0.00116119 0)
(1.01028 0.000550515 0)
(1.01149 3.25774e-06 0)
(1.0123 -0.000469499 0)
(1.01239 -0.00085073 0)