/*--------------------------------*- C++ -*----------------------------------*\
| =========                 |                                                 |
| \\      /  F ield         | OpenFOAM: The Open Source CFD Toolbox           |
|  \\    /   O peration     | Version:  v2012                                 |
|   \\  /    A nd           | Website:  www.openfoam.com                      |
|    \\/     M anipulation  |                                                 |
\*---------------------------------------------------------------------------*/
FoamFile
{
    version     2.0;
    format      ascii;
    class       surfaceScalarField;
    location    "4.5";
    object      phi;
}
// * * * * * * * * * * * * * * * * * * * * * * * * * * * * * * * * * * * * * //

dimensions      [0 3 -1 0 0 0 0];
oriented        oriented;


internalField   nonuniform List<scalar> 
34900
(
1.17324e-06
6.51232e-08
1.16665e-06
-1.65034e-07
1.16974e-06
2.6787e-08
1.16753e-06
-1.82801e-07
1.17548e-06
2.90918e-07
1.16601e-06
-2.09069e-07
1.17625e-06
4.54483e-07
1.1579e-06
-2.18823e-07
1.16731e-06
3.01964e-07
1.14925e-06
-8.5767e-08
1.15654e-06
1.16778e-07
1.14154e-06
9.74915e-09
1.14882e-06
3.12055e-08
1.1357e-06
3.68553e-08
1.14272e-06
3.412e-08
1.12948e-06
1.69249e-08
1.13638e-06
4.88681e-08
1.12197e-06
1.29195e-08
1.12441e-06
7.33745e-08
1.76348e-08
1.08659e-06
1.22769e-06
6.16897e-08
1.22221e-06
-1.59547e-07
1.22405e-06
2.49399e-08
1.22345e-06
-1.82192e-07
1.22875e-06
2.85618e-07
1.22123e-06
-2.0155e-07
1.2272e-06
4.48512e-07
1.21266e-06
-2.04283e-07
1.21638e-06
2.98242e-07
1.20512e-06
-7.45028e-08
1.20548e-06
1.16412e-07
1.19992e-06
1.53147e-08
1.19835e-06
3.27753e-08
1.19749e-06
3.77153e-08
1.1918e-06
3.98109e-08
1.19507e-06
1.36476e-08
1.18268e-06
6.12645e-08
1.19147e-06
4.12544e-09
1.16608e-06
9.87696e-08
1.35438e-08
1.17017e-06
1.28362e-06
6.08527e-08
1.28132e-06
-1.57249e-07
1.28054e-06
2.57213e-08
1.28229e-06
-1.83946e-07
1.28422e-06
2.83688e-07
1.27968e-06
-1.97008e-07
1.28159e-06
4.46606e-07
1.27211e-06
-1.94803e-07
1.26989e-06
3.00462e-07
1.26634e-06
-7.09512e-08
1.25987e-06
1.22883e-07
1.26235e-06
1.28277e-08
1.25404e-06
4.10873e-08
1.25996e-06
3.17975e-08
1.24957e-06
5.01973e-08
1.25608e-06
7.13967e-09
1.24423e-06
7.31188e-08
1.24857e-06
-2.22235e-10
1.23582e-06
1.11524e-07
2.66696e-08
1.22269e-06
1.34188e-06
6.30792e-08
1.34363e-06
-1.59003e-07
1.33973e-06
2.96183e-08
1.34393e-06
-1.88142e-07
1.34308e-06
2.84534e-07
1.34157e-06
-1.95492e-07
1.3414e-06
4.4677e-07
1.33661e-06
-1.90011e-07
1.33125e-06
3.05823e-07
1.33231e-06
-7.20133e-08
1.32363e-06
1.31564e-07
1.32783e-06
8.62601e-09
1.31947e-06
4.94536e-08
1.32392e-06
2.73479e-08
1.3168e-06
5.73136e-08
1.31921e-06
4.72944e-09
1.31325e-06
7.90752e-08
1.3116e-06
1.42936e-09
1.30605e-06
1.17074e-07
4.37846e-08
1.28894e-06
1.4036e-06
6.78346e-08
1.40857e-06
-1.63976e-07
1.40247e-06
3.57187e-08
1.40769e-06
-1.93357e-07
1.40596e-06
2.86258e-07
1.40612e-06
-1.95653e-07
1.40677e-06
4.46119e-07
1.40454e-06
-1.87778e-07
1.39997e-06
3.10391e-07
1.40161e-06
-7.3649e-08
1.39491e-06
1.38266e-07
1.39709e-06
6.44315e-09
1.39137e-06
5.51765e-08
1.39287e-06
2.58405e-08
1.38878e-06
6.14125e-08
1.38857e-06
4.93809e-09
1.38502e-06
8.2626e-08
1.38113e-06
5.31171e-09
1.3775e-06
1.20709e-07
6.10396e-08
1.36024e-06
1.46986e-06
7.36484e-08
1.47606e-06
-1.70174e-07
1.46947e-06
4.23103e-08
1.47373e-06
-1.97614e-07
1.47288e-06
2.87108e-07
1.47314e-06
-1.95917e-07
1.47629e-06
4.42965e-07
1.47482e-06
-1.86302e-07
1.47305e-06
3.12154e-07
1.47343e-06
-7.40295e-08
1.46968e-06
1.42017e-07
1.46975e-06
6.37833e-09
1.46604e-06
5.88811e-08
1.46596e-06
2.59278e-08
1.46312e-06
6.42528e-08
1.46186e-06
6.19957e-09
1.45923e-06
8.52467e-08
1.45393e-06
1.06171e-08
1.45174e-06
1.229e-07
7.84629e-08
1.43431e-06
1.54106e-06
7.88071e-08
1.54654e-06
-1.75653e-07
1.54092e-06
4.79303e-08
1.5429e-06
-1.99598e-07
1.54352e-06
2.86486e-07
1.54298e-06
-1.95374e-07
1.54859e-06
4.37352e-07
1.54711e-06
-1.84824e-07
1.54817e-06
3.11095e-07
1.54732e-06
-7.3174e-08
1.5459e-06
1.4344e-07
1.5448e-06
7.47301e-09
1.54232e-06
6.13607e-08
1.54156e-06
2.66925e-08
1.53944e-06
6.63714e-08
1.53746e-06
8.17969e-09
1.53577e-06
8.69352e-08
1.52904e-06
1.73413e-08
1.52827e-06
1.23677e-07
9.5685e-08
1.51105e-06
1.61674e-06
8.21931e-08
1.62049e-06
-1.79395e-07
1.61644e-06
5.1977e-08
1.61602e-06
-1.99183e-07
1.61774e-06
2.84771e-07
1.6162e-06
-1.93836e-07
1.62339e-06
4.30168e-07
1.62173e-06
-1.83169e-07
1.62494e-06
3.07887e-07
1.62334e-06
-7.15736e-08
1.62362e-06
1.43152e-07
1.62201e-06
9.0916e-09
1.62054e-06
6.28249e-08
1.61939e-06
2.78491e-08
1.61806e-06
6.76945e-08
1.61536e-06
1.08838e-08
1.61473e-06
8.75647e-08
1.60673e-06
2.53439e-08
1.60708e-06
1.23327e-07
1.12097e-07
1.59066e-06
1.69613e-06
8.36328e-08
1.69812e-06
-1.81383e-07
1.69551e-06
5.45871e-08
1.69345e-06
-1.97121e-07
1.69568e-06
2.82541e-07
1.69333e-06
-1.91486e-07
1.70128e-06
4.22218e-07
1.69933e-06
-1.81217e-07
1.70411e-06
3.031e-07
1.70203e-06
-6.94944e-08
1.70375e-06
1.41436e-07
1.70182e-06
1.10232e-08
1.70142e-06
6.3226e-08
1.6999e-06
2.93666e-08
1.69952e-06
6.80748e-08
1.69607e-06
1.43377e-08
1.69651e-06
8.71241e-08
1.68748e-06
3.43716e-08
1.68855e-06
1.22253e-07
1.27134e-07
1.67352e-06
1.77873e-06
8.36223e-08
1.77947e-06
-1.82118e-07
1.77787e-06
5.61801e-08
1.77514e-06
-1.94384e-07
1.77761e-06
2.80066e-07
1.77471e-06
-1.8858e-07
1.78301e-06
4.13911e-07
1.78057e-06
-1.78771e-07
1.78661e-06
2.97064e-07
1.78402e-06
-6.69136e-08
1.78706e-06
1.38398e-07
1.78478e-06
1.33022e-08
1.78552e-06
6.24927e-08
1.78357e-06
3.13108e-08
1.78422e-06
6.74289e-08
1.78001e-06
1.8545e-08
1.78141e-06
8.57298e-08
1.77169e-06
4.40855e-08
1.77301e-06
1.20933e-07
1.40311e-07
1.75983e-06
1.86455e-06
8.28199e-08
1.86457e-06
-1.82137e-07
1.86362e-06
5.71344e-08
1.86092e-06
-1.91689e-07
1.86368e-06
2.77304e-07
1.86043e-06
-1.85331e-07
1.86901e-06
4.05331e-07
1.86587e-06
-1.75624e-07
1.87299e-06
2.8994e-07
1.86974e-06
-6.36614e-08
1.87404e-06
1.34099e-07
1.87127e-06
1.60707e-08
1.87316e-06
6.06001e-08
1.87069e-06
3.37785e-08
1.87236e-06
6.57675e-08
1.86745e-06
2.34524e-08
1.86954e-06
8.36362e-08
1.85956e-06
5.40675e-08
1.86061e-06
1.19881e-07
1.51271e-07
1.84965e-06
1.95395e-06
8.17069e-08
1.9536e-06
-1.81787e-07
1.95304e-06
5.77004e-08
1.9507e-06
-1.89357e-07
1.95391e-06
2.74096e-07
1.95045e-06
-1.81865e-07
1.95938e-06
3.96392e-07
1.95539e-06
-1.71629e-07
1.96353e-06
2.81799e-07
1.95942e-06
-5.95527e-08
1.96493e-06
1.28594e-07
1.96151e-06
1.94903e-08
1.96453e-06
5.75782e-08
1.96147e-06
3.68411e-08
1.96403e-06
6.32055e-08
1.95857e-06
2.89134e-08
1.96098e-06
8.12231e-08
1.95119e-06
6.38556e-08
1.95152e-06
1.19553e-07
1.59855e-07
1.94294e-06
2.04738e-06
8.05184e-08
2.04683e-06
-1.81235e-07
2.0465e-06
5.80263e-08
2.04455e-06
-1.87405e-07
2.04832e-06
2.70319e-07
2.04467e-06
-1.78216e-07
2.05412e-06
3.8695e-07
2.0492e-06
-1.66715e-07
2.05834e-06
2.72658e-07
2.05324e-06
-5.4454e-08
2.05991e-06
1.21931e-07
2.05571e-06
2.36858e-08
2.05978e-06
5.35056e-08
2.05613e-06
4.05004e-08
2.05937e-06
5.99617e-08
2.05361e-06
3.46747e-08
2.05588e-06
7.89463e-08
2.04673e-06
7.30134e-08
2.04604e-06
1.20245e-07
1.66151e-07
2.03974e-06
2.1452e-06
7.9322e-08
2.14451e-06
-1.80547e-07
2.14434e-06
5.81919e-08
2.14263e-06
-1.85693e-07
2.14704e-06
2.65909e-07
2.14317e-06
-1.74339e-07
2.15325e-06
3.76864e-07
2.1474e-06
-1.60859e-07
2.15756e-06
2.62496e-07
2.1514e-06
-4.82931e-08
2.15918e-06
1.14146e-07
2.15415e-06
2.87146e-08
2.15915e-06
4.85073e-08
2.15499e-06
4.46559e-08
2.15861e-06
5.63494e-08
2.15289e-06
4.03965e-08
2.15456e-06
7.72678e-08
2.14638e-06
8.11974e-08
2.14458e-06
1.22049e-07
1.70467e-07
2.14026e-06
2.2477e-06
7.81123e-08
2.2469e-06
-1.79746e-07
2.24686e-06
5.82283e-08
2.24522e-06
-1.84048e-07
2.25028e-06
2.60843e-07
2.24609e-06
-1.70147e-07
2.25694e-06
3.66014e-07
2.25013e-06
-1.54051e-07
2.26136e-06
2.5127e-07
2.25411e-06
-4.10445e-08
2.26299e-06
1.05269e-07
2.25715e-06
3.45536e-08
2.26289e-06
4.2762e-08
2.25845e-06
4.90938e-08
2.26205e-06
5.27554e-08
2.25674e-06
4.57032e-08
2.25743e-06
7.65782e-08
2.25042e-06
8.82065e-08
2.24761e-06
1.24863e-07
1.73249e-07
2.24483e-06
2.35512e-06
7.68649e-08
2.35421e-06
-1.78833e-07
2.35431e-06
5.81286e-08
2.35257e-06
-1.82313e-07
2.35832e-06
2.55101e-07
2.3537e-06
-1.65534e-07
2.36542e-06
3.54298e-07
2.35764e-06
-1.46274e-07
2.36998e-06
2.38928e-07
2.36166e-06
-3.27174e-08
2.37157e-06
9.53523e-08
2.36504e-06
4.10894e-08
2.37128e-06
3.65189e-08
2.36689e-06
5.34896e-08
2.37003e-06
4.96094e-08
2.36549e-06
5.02498e-08
2.36495e-06
7.71163e-08
2.35912e-06
9.40309e-08
2.35557e-06
1.28416e-07
1.74988e-07
2.35383e-06
2.4677e-06
7.55562e-08
2.46666e-06
-1.77788e-07
2.46693e-06
5.78566e-08
2.46498e-06
-1.80364e-07
2.47144e-06
2.48646e-07
2.4663e-06
-1.60393e-07
2.47896e-06
3.4163e-07
2.47019e-06
-1.375e-07
2.48369e-06
2.25426e-07
2.47433e-06
-2.33575e-08
2.48519e-06
8.44938e-08
2.47817e-06
4.81104e-08
2.48458e-06
3.01077e-08
2.48063e-06
5.7439e-08
2.48291e-06
4.7333e-08
2.47937e-06
5.37889e-08
2.47758e-06
7.89069e-08
2.47273e-06
9.88769e-08
2.46883e-06
1.32314e-07
1.76139e-07
2.46768e-06
2.58569e-06
7.41654e-08
2.58447e-06
-1.76575e-07
2.58498e-06
5.73505e-08
2.58271e-06
-1.78092e-07
2.58994e-06
2.41418e-07
2.58416e-06
-1.54616e-07
2.59786e-06
3.27927e-07
2.58806e-06
-1.27701e-07
2.60274e-06
2.10753e-07
2.59244e-06
-1.30618e-08
2.60406e-06
7.28706e-08
2.59687e-06
5.52987e-08
2.60305e-06
2.39369e-08
2.59998e-06
6.05027e-08
2.60104e-06
4.62775e-08
2.5986e-06
5.62295e-08
2.59575e-06
8.17563e-08
2.59152e-06
1.03105e-07
2.5877e-06
1.36135e-07
1.77061e-07
2.58678e-06
2.70932e-06
7.26727e-08
2.70789e-06
-1.75139e-07
2.70871e-06
5.65243e-08
2.70602e-06
-1.75396e-07
2.7141e-06
2.33333e-07
2.70759e-06
-1.48104e-07
2.72239e-06
3.13122e-07
2.71156e-06
-1.16867e-07
2.72736e-06
1.94949e-07
2.7163e-06
-1.99875e-09
2.72842e-06
6.07488e-08
2.72147e-06
6.22491e-08
2.72696e-06
1.84514e-08
2.72517e-06
6.22853e-08
2.7248e-06
4.66528e-08
2.72335e-06
5.76756e-08
2.71981e-06
8.5299e-08
2.7158e-06
1.07112e-07
2.71239e-06
1.3955e-07
1.77965e-07
2.71148e-06
2.83888e-06
7.10579e-08
2.83715e-06
-1.73404e-07
2.8384e-06
5.52686e-08
2.83518e-06
-1.72172e-07
2.84422e-06
2.24294e-07
2.83688e-06
-1.40769e-07
2.85284e-06
2.9717e-07
2.841e-06
-1.05029e-07
2.85782e-06
1.78131e-07
2.84625e-06
9.57141e-09
2.8585e-06
4.84942e-08
2.85226e-06
6.84871e-08
2.85663e-06
1.4084e-08
2.85641e-06
6.2504e-08
2.8546e-06
4.84662e-08
2.85383e-06
5.84384e-08
2.85005e-06
8.90879e-08
2.84596e-06
1.11198e-07
2.84309e-06
1.42417e-07
1.7889e-07
2.84217e-06
2.97465e-06
6.92997e-08
2.97253e-06
-1.71277e-07
2.97434e-06
5.34545e-08
2.97049e-06
-1.6832e-07
2.98058e-06
2.14202e-07
2.97236e-06
-1.32547e-07
2.98946e-06
2.80072e-07
2.97671e-06
-9.2283e-08
2.99433e-06
1.60508e-07
2.98262e-06
2.1284e-08
2.99456e-06
3.65576e-08
2.98953e-06
7.35157e-08
2.99243e-06
1.11877e-08
2.99386e-06
6.1065e-08
2.99086e-06
5.14754e-08
2.9903e-06
5.89954e-08
2.98667e-06
9.27192e-08
2.98237e-06
1.15491e-07
2.98001e-06
1.44782e-07
1.79753e-07
2.97915e-06
3.11693e-06
6.7376e-08
3.1143e-06
-1.68649e-07
3.11682e-06
5.09381e-08
3.11224e-06
-1.63741e-07
3.12347e-06
2.02973e-07
3.11434e-06
-1.23419e-07
3.13252e-06
2.61889e-07
3.11905e-06
-7.88109e-08
3.13717e-06
1.42391e-07
3.12577e-06
3.26864e-08
3.13689e-06
2.54323e-08
3.13353e-06
7.68785e-08
3.13474e-06
9.97357e-09
3.13772e-06
5.80883e-08
3.13398e-06
5.5219e-08
3.13309e-06
5.9877e-08
3.12987e-06
9.59476e-08
3.12536e-06
1.19998e-07
3.12336e-06
1.46778e-07
1.80434e-07
3.12268e-06
3.26602e-06
6.52657e-08
3.26278e-06
-1.65407e-07
3.26614e-06
4.75707e-08
3.26076e-06
-1.58356e-07
3.27318e-06
1.90555e-07
3.26319e-06
-1.13428e-07
3.2823e-06
2.42772e-07
3.26839e-06
-6.48983e-08
3.28658e-06
1.24198e-07
3.27602e-06
4.32473e-08
3.28583e-06
1.56244e-08
3.28451e-06
7.82039e-08
3.28399e-06
1.04895e-08
3.28823e-06
5.38469e-08
3.28434e-06
5.91137e-08
3.28271e-06
6.14991e-08
3.27984e-06
9.88234e-08
3.27502e-06
1.24819e-07
3.27349e-06
1.4831e-07
1.80996e-07
3.27292e-06
3.42225e-06
6.295e-08
3.41827e-06
-1.61434e-07
3.42263e-06
4.32142e-08
3.41639e-06
-1.52119e-07
3.43e-06
1.76954e-07
3.41927e-06
-1.02704e-07
3.43906e-06
2.22983e-07
3.42512e-06
-5.09549e-08
3.44286e-06
1.06457e-07
3.43373e-06
5.23774e-08
3.44175e-06
7.60631e-09
3.44269e-06
7.72614e-08
3.44056e-06
1.26179e-08
3.44572e-06
4.86876e-08
3.44237e-06
6.24674e-08
3.44008e-06
6.37863e-08
3.43686e-06
1.02048e-07
3.43103e-06
1.30642e-07
3.4301e-06
1.49245e-07
1.81496e-07
3.4296e-06
3.58595e-06
6.04153e-08
3.58114e-06
-1.5663e-07
3.5866e-06
3.77613e-08
3.57952e-06
-1.4504e-07
3.59422e-06
1.62253e-07
3.583e-06
-9.14853e-08
3.60308e-06
2.02898e-07
3.58961e-06
-3.74792e-08
3.60636e-06
8.97073e-08
3.59915e-06
5.95889e-08
3.6051e-06
1.65033e-09
3.60827e-06
7.40968e-08
3.6049e-06
1.5981e-08
3.61052e-06
4.3066e-08
3.60858e-06
6.44131e-08
3.6085e-06
6.3869e-08
3.61123e-06
9.93166e-08
3.60413e-06
1.37735e-07
3.58754e-06
1.65839e-07
1.77227e-07
3.59181e-06
3.75746e-06
5.76562e-08
3.75176e-06
-1.50921e-07
3.75836e-06
3.1157e-08
3.75052e-06
-1.37203e-07
3.76614e-06
1.46633e-07
3.75478e-06
-8.01178e-08
3.7747e-06
1.82974e-07
3.76221e-06
-2.49844e-08
3.77751e-06
7.44075e-08
3.77246e-06
6.46327e-08
3.77643e-06
-2.32003e-09
3.78141e-06
6.91187e-08
3.7776e-06
1.97926e-08
3.78328e-06
3.73851e-08
3.78353e-06
6.41624e-08
3.78662e-06
6.07823e-08
3.79437e-06
9.15641e-08
3.80234e-06
1.29763e-07
3.81389e-06
1.54287e-07
1.99191e-07
3.79193e-06
3.93717e-06
5.46788e-08
3.93052e-06
-1.44273e-07
3.93824e-06
2.34338e-08
3.92985e-06
-1.28811e-07
3.94609e-06
1.30393e-07
3.93504e-06
-6.90672e-08
3.95428e-06
1.63733e-07
3.94324e-06
-1.3946e-08
3.95678e-06
6.08628e-08
3.95389e-06
6.75258e-08
3.95622e-06
-4.64399e-09
3.96248e-06
6.28527e-08
3.95906e-06
2.32149e-08
3.96558e-06
3.08675e-08
3.96663e-06
6.3107e-08
3.95668e-06
7.07337e-08
3.94826e-06
9.99803e-08
3.94219e-06
1.35838e-07
3.93225e-06
1.64225e-07
1.91829e-07
3.93961e-06
4.12543e-06
5.15027e-08
4.11786e-06
-1.36709e-07
4.12656e-06
1.47361e-08
4.11794e-06
-1.20186e-07
4.1344e-06
1.13932e-07
4.12419e-06
-5.88622e-08
4.14227e-06
1.45658e-07
4.13299e-06
-4.66619e-09
4.14474e-06
4.91103e-08
4.14371e-06
6.85526e-08
4.14488e-06
-5.81521e-09
4.15204e-06
5.56942e-08
4.1474e-06
2.78567e-08
4.14626e-06
3.20119e-08
4.13921e-06
7.01518e-08
4.13302e-06
7.69214e-08
4.13067e-06
1.02337e-07
4.12675e-06
1.39757e-07
4.12289e-06
1.68078e-07
1.87857e-07
4.12687e-06
4.32264e-06
4.81653e-08
4.31426e-06
-1.28332e-07
4.32365e-06
5.35089e-09
4.31524e-06
-1.11781e-07
4.33146e-06
9.77136e-08
4.32262e-06
-5.0017e-08
4.33919e-06
1.2908e-07
4.33171e-06
2.81615e-09
4.34189e-06
3.89324e-08
4.34229e-06
6.81489e-08
4.34209e-06
-5.6081e-09
4.34636e-06
5.14241e-08
4.33737e-06
3.68392e-08
4.3347e-06
3.46828e-08
4.33211e-06
7.27468e-08
4.3256e-06
8.34284e-08
4.32288e-06
1.05055e-07
4.32121e-06
1.41431e-07
4.32049e-06
1.68799e-07
1.85185e-07
4.32316e-06
4.52922e-06
4.47219e-08
4.52022e-06
-1.19331e-07
4.52984e-06
-4.26826e-09
4.52223e-06
-1.04175e-07
4.53771e-06
8.22281e-08
4.53067e-06
-4.29723e-08
4.54563e-06
1.14116e-07
4.5397e-06
8.75195e-09
4.54864e-06
2.99947e-08
4.54916e-06
6.76234e-08
4.54534e-06
-1.78778e-09
4.54733e-06
4.9433e-08
4.53946e-06
4.47164e-08
4.53571e-06
3.84275e-08
4.53419e-06
7.42657e-08
4.52821e-06
8.94094e-08
4.52519e-06
1.08078e-07
4.52487e-06
1.41753e-07
4.52637e-06
1.67296e-07
1.83731e-07
4.52782e-06
4.74559e-06
4.12468e-08
4.73624e-06
-1.09984e-07
4.7455e-06
-1.35277e-08
4.73932e-06
-9.79936e-08
4.75369e-06
6.78634e-08
4.74864e-06
-3.79224e-08
4.76221e-06
1.00544e-07
4.75727e-06
1.36903e-08
4.76483e-06
2.24305e-08
4.76358e-06
6.88757e-08
4.75685e-06
4.93949e-09
4.75869e-06
4.75967e-08
4.7518e-06
5.16046e-08
4.74723e-06
4.30046e-08
4.74612e-06
7.53672e-08
4.74096e-06
9.45732e-08
4.73776e-06
1.11278e-07
4.73842e-06
1.41094e-07
4.74035e-06
1.65366e-07
1.82168e-07
4.74191e-06
4.97221e-06
3.78336e-08
4.96289e-06
-1.00661e-07
4.97107e-06
-2.17141e-08
4.96693e-06
-9.38445e-08
4.97996e-06
5.48256e-08
4.97683e-06
-3.47851e-08
4.98942e-06
8.79481e-08
4.98455e-06
1.85608e-08
4.98945e-06
1.7535e-08
4.98698e-06
7.13415e-08
4.97888e-06
1.30384e-08
4.98039e-06
4.60931e-08
4.97472e-06
5.72721e-08
4.96948e-06
4.8247e-08
4.96841e-06
7.64299e-08
4.96417e-06
9.88156e-08
4.96103e-06
1.14416e-07
4.96227e-06
1.39857e-07
4.9641e-06
1.63539e-07
1.79978e-07
4.96629e-06
5.20957e-06
3.45844e-08
5.2007e-06
-9.17916e-08
5.20708e-06
-2.8096e-08
5.20537e-06
-9.21335e-08
5.21721e-06
4.2983e-08
5.21565e-06
-3.32288e-08
5.22754e-06
7.60578e-08
5.22167e-06
2.44387e-08
5.22255e-06
1.66511e-08
5.22072e-06
7.31737e-08
5.21201e-06
2.17496e-08
5.21301e-06
4.50916e-08
5.20854e-06
6.17385e-08
5.20287e-06
5.39184e-08
5.20159e-06
7.77077e-08
5.19825e-06
1.0216e-07
5.19552e-06
1.17144e-07
5.19676e-06
1.38615e-07
5.19883e-06
1.61475e-07
1.7724e-07
5.20156e-06
5.45817e-06
3.16057e-08
5.4502e-06
-8.38258e-08
5.45421e-06
-3.21064e-08
5.45486e-06
-9.27782e-08
5.46611e-06
3.173e-08
5.46555e-06
-3.26646e-08
5.47676e-06
6.48481e-08
5.46817e-06
3.30283e-08
5.46627e-06
1.85425e-08
5.46559e-06
7.38551e-08
5.45686e-06
3.04863e-08
5.45707e-06
4.4881e-08
5.45364e-06
6.5164e-08
5.44787e-06
5.96897e-08
5.44623e-06
7.93467e-08
5.44371e-06
1.04683e-07
5.44159e-06
1.19257e-07
5.44257e-06
1.37639e-07
5.44503e-06
1.59016e-07
1.73983e-07
5.44829e-06
5.71857e-06
2.89894e-08
5.71195e-06
-7.72009e-08
5.71328e-06
-3.34353e-08
5.7156e-06
-9.50963e-08
5.72695e-06
2.03801e-08
5.72574e-06
-3.14629e-08
5.73362e-06
5.69683e-08
5.72492e-06
4.17359e-08
5.72174e-06
2.17207e-08
5.7223e-06
7.32932e-08
5.71391e-06
3.88748e-08
5.71311e-06
4.56796e-08
5.71051e-06
6.77676e-08
5.70493e-06
6.52669e-08
5.70294e-06
8.13448e-08
5.70114e-06
1.06482e-07
5.69963e-06
1.20764e-07
5.70039e-06
1.36877e-07
5.7032e-06
1.56211e-07
1.70234e-07
5.70695e-06
5.99138e-06
2.68061e-08
5.98651e-06
-7.23364e-08
5.98512e-06
-3.20419e-08
5.98772e-06
-9.77006e-08
5.99827e-06
9.83077e-09
5.99384e-06
-2.70322e-08
6.00054e-06
5.02674e-08
5.99405e-06
4.82278e-08
5.99011e-06
2.56578e-08
5.99128e-06
7.21263e-08
5.98364e-06
4.65112e-08
5.98176e-06
4.7561e-08
5.97973e-06
6.97968e-08
5.97454e-06
7.04624e-08
5.97229e-06
8.35936e-08
5.97113e-06
1.07641e-07
5.97013e-06
1.21766e-07
5.97084e-06
1.36165e-07
5.97389e-06
1.53156e-07
1.66056e-07
5.97807e-06
6.2772e-06
2.50956e-08
6.27436e-06
-6.95025e-08
6.2706e-06
-2.82731e-08
6.27153e-06
-9.86337e-08
6.28103e-06
3.26953e-10
6.27582e-06
-2.18142e-08
6.28156e-06
4.45269e-08
6.27657e-06
5.32163e-08
6.27183e-06
3.03923e-08
6.27312e-06
7.08362e-08
6.26649e-06
5.31464e-08
6.26365e-06
5.0399e-08
6.26193e-06
7.15121e-08
6.25723e-06
7.51705e-08
6.25485e-06
8.59693e-08
6.25427e-06
1.08217e-07
6.2537e-06
1.22342e-07
6.2545e-06
1.3536e-07
6.25772e-06
1.49934e-07
1.61526e-07
6.26225e-06
6.57669e-06
2.38738e-08
6.57596e-06
-6.87677e-08
6.5704e-06
-2.27158e-08
6.5685e-06
-9.67344e-08
6.57796e-06
-9.13125e-09
6.5724e-06
-1.62611e-08
6.57665e-06
4.02838e-08
6.57283e-06
5.70365e-08
6.56747e-06
3.57495e-08
6.56851e-06
6.97974e-08
6.56294e-06
5.87175e-08
6.55942e-06
5.39171e-08
6.55778e-06
7.31494e-08
6.55361e-06
7.93396e-08
6.5512e-06
8.83865e-08
6.55115e-06
1.0826e-07
6.551e-06
1.22495e-07
6.55199e-06
1.34369e-07
6.55532e-06
1.46611e-07
1.56725e-07
6.56012e-06
6.89054e-06
2.31236e-08
6.8917e-06
-6.99265e-08
6.88518e-06
-1.62009e-08
6.88032e-06
-9.1871e-08
6.88935e-06
-1.81575e-08
6.8837e-06
-1.06125e-08
6.88613e-06
3.78524e-08
6.88336e-06
5.98042e-08
6.87767e-06
4.14385e-08
6.87816e-06
6.93128e-08
6.87357e-06
6.33007e-08
6.86969e-06
5.78012e-08
6.868e-06
7.48427e-08
6.86436e-06
8.29776e-08
6.86197e-06
9.0781e-08
6.86238e-06
1.07847e-07
6.8627e-06
1.22176e-07
6.86395e-06
1.33114e-07
6.86733e-06
1.43231e-07
1.51737e-07
6.87232e-06
7.21947e-06
2.27945e-08
7.2221e-06
-7.2559e-08
7.21562e-06
-9.7273e-09
7.20784e-06
-8.40915e-08
7.21602e-06
-2.63349e-08
7.21026e-06
-4.85248e-09
7.21063e-06
3.74866e-08
7.20876e-06
6.16771e-08
7.2031e-06
4.70937e-08
7.20283e-06
6.95785e-08
7.19903e-06
6.71025e-08
7.19508e-06
6.17529e-08
7.1933e-06
7.66252e-08
7.19014e-06
8.61316e-08
7.18787e-06
9.30544e-08
7.18859e-06
1.07127e-07
7.18946e-06
1.21309e-07
7.19106e-06
1.31515e-07
7.19448e-06
1.39804e-07
1.46646e-07
7.19958e-06
7.56421e-06
2.28109e-08
7.5679e-06
-7.62545e-08
7.56229e-06
-4.10849e-09
7.55206e-06
-7.38684e-08
7.55885e-06
-3.31258e-08
7.55275e-06
1.25607e-09
7.55086e-06
3.93706e-08
7.54968e-06
6.28601e-08
7.5444e-06
5.23671e-08
7.54333e-06
7.0653e-08
7.54003e-06
7.04002e-08
7.53623e-06
6.55569e-08
7.53442e-06
7.84347e-08
7.53169e-06
8.88609e-08
7.52966e-06
9.50826e-08
7.5305e-06
1.06284e-07
7.53197e-06
1.19846e-07
7.53399e-06
1.29488e-07
7.5375e-06
1.36294e-07
1.41517e-07
7.54263e-06
7.92554e-06
2.30834e-08
7.92981e-06
-8.05279e-08
7.92587e-06
-1.61883e-10
7.91433e-06
-6.23329e-08
7.91873e-06
-3.7529e-08
7.91176e-06
8.23316e-09
7.90767e-06
4.34601e-08
7.90687e-06
6.36579e-08
7.90227e-06
5.69686e-08
7.90047e-06
7.24555e-08
7.89736e-06
7.35022e-08
7.89382e-06
6.90982e-08
7.89209e-06
8.01621e-08
7.88978e-06
9.11795e-08
7.88807e-06
9.67893e-08
7.88891e-06
1.05444e-07
7.89093e-06
1.17819e-07
7.89347e-06
1.26957e-07
7.89713e-06
1.32635e-07
1.36378e-07
7.90227e-06
8.30424e-06
2.3521e-08
8.30859e-06
-8.48707e-08
8.30902e-06
-5.97816e-10
8.29669e-06
-4.9999e-08
8.29632e-06
-3.71579e-08
8.28795e-06
1.66035e-08
8.28196e-06
4.94458e-08
8.28116e-06
6.44586e-08
8.27737e-06
6.07549e-08
8.27504e-06
7.47885e-08
8.27188e-06
7.66608e-08
8.26859e-06
7.23869e-08
8.26706e-06
8.16957e-08
8.26521e-06
9.30342e-08
8.26386e-06
9.81364e-08
8.26465e-06
1.04649e-07
8.26713e-06
1.15347e-07
8.27021e-06
1.23872e-07
8.27411e-06
1.28735e-07
1.31219e-07
8.27927e-06
8.70115e-06
2.40348e-08
8.70641e-06
-9.01327e-08
8.71207e-06
-6.25609e-09
8.69981e-06
-3.77406e-08
8.69139e-06
-2.87345e-08
8.68208e-06
2.59057e-08
8.67477e-06
5.67621e-08
8.67346e-06
6.57672e-08
8.67044e-06
6.37736e-08
8.66787e-06
7.73615e-08
8.66451e-06
8.00207e-08
8.66137e-06
7.55284e-08
8.66008e-06
8.29808e-08
8.65877e-06
9.43437e-08
8.65785e-06
9.90598e-08
8.6586e-06
1.03902e-07
8.66137e-06
1.12569e-07
8.66501e-06
1.20237e-07
8.66925e-06
1.24498e-07
1.26004e-07
8.67446e-06
9.11705e-06
2.46037e-08
9.12748e-06
-1.00565e-07
9.13669e-06
-1.54618e-08
9.11377e-06
-1.48234e-08
9.10325e-06
-1.82099e-08
9.09525e-06
3.39009e-08
9.08712e-06
6.48892e-08
9.08467e-06
6.82235e-08
9.08222e-06
6.62238e-08
9.07971e-06
7.98688e-08
9.07615e-06
8.35846e-08
9.07303e-06
7.86451e-08
9.07198e-06
8.40324e-08
9.0713e-06
9.50208e-08
9.07087e-06
9.94899e-08
9.07163e-06
1.03145e-07
9.07458e-06
1.09614e-07
9.0787e-06
1.16116e-07
9.08336e-06
1.19846e-07
1.20669e-07
9.08869e-06
9.55275e-06
2.53168e-08
9.55737e-06
-1.05186e-07
9.55341e-06
-1.15049e-08
9.53833e-06
2.5904e-10
9.53364e-06
-1.35189e-08
9.52857e-06
3.89679e-08
9.52002e-06
7.34412e-08
9.51587e-06
7.23678e-08
9.51368e-06
6.84152e-08
9.51145e-06
8.21021e-08
9.50781e-06
8.72285e-08
9.50457e-06
8.18841e-08
9.50365e-06
8.49466e-08
9.50367e-06
9.50063e-08
9.50375e-06
9.94101e-08
9.50465e-06
1.02241e-07
9.50769e-06
1.06574e-07
9.51219e-06
1.1162e-07
9.51728e-06
1.14752e-07
1.15117e-07
9.52283e-06
1.00092e-05
2.6268e-08
9.99764e-06
-9.36381e-08
9.99802e-06
-1.18851e-08
9.98859e-06
9.68726e-09
9.98484e-06
-9.76947e-09
9.98235e-06
4.14574e-08
9.97405e-06
8.17352e-08
9.96814e-06
7.82827e-08
9.96573e-06
7.08208e-08
9.96395e-06
8.38867e-08
9.96042e-06
9.07544e-08
9.95701e-06
8.53006e-08
9.95612e-06
8.58341e-08
9.95677e-06
9.43562e-08
9.95743e-06
9.87526e-08
9.95862e-06
1.01043e-07
9.96172e-06
1.03479e-07
9.96647e-06
1.06875e-07
9.97197e-06
1.09251e-07
1.09265e-07
9.97782e-06
1.04875e-05
2.73661e-08
1.04677e-05
-7.38416e-08
1.0475e-05
-1.91581e-08
1.04646e-05
2.00977e-08
1.0458e-05
-3.12865e-09
1.04572e-05
4.2228e-08
1.04499e-05
8.90251e-08
1.04425e-05
8.57176e-08
1.04393e-05
7.39615e-08
1.0438e-05
8.52246e-08
1.04348e-05
9.39278e-08
1.04312e-05
8.88837e-08
1.04303e-05
8.68058e-08
1.04314e-05
9.32292e-08
1.04327e-05
9.74414e-08
1.04343e-05
9.94106e-08
1.04375e-05
1.00277e-07
1.04424e-05
1.01973e-07
1.04483e-05
1.03409e-07
1.03088e-07
1.04545e-05
1.09894e-05
2.79486e-08
1.10053e-05
-8.96615e-08
1.09916e-05
-5.47113e-09
1.09648e-05
4.69052e-08
1.09539e-05
7.72649e-09
1.09542e-05
4.19429e-08
1.09483e-05
9.48944e-08
1.09398e-05
9.42823e-08
1.09355e-05
7.82069e-08
1.09345e-05
8.62809e-08
1.09319e-05
9.64893e-08
1.09283e-05
9.24523e-08
1.09272e-05
8.79435e-08
1.09286e-05
9.18035e-08
1.09306e-05
9.54841e-08
1.09328e-05
9.72058e-08
1.09362e-05
9.68747e-08
1.09412e-05
9.69724e-08
1.09473e-05
9.73205e-08
9.66177e-08
1.09537e-05
1.15144e-05
2.88672e-08
1.14956e-05
-7.08618e-08
1.15009e-05
-1.07565e-08
1.1489e-05
5.88412e-08
1.14761e-05
2.06685e-08
1.14751e-05
4.29314e-08
1.14707e-05
9.92603e-08
1.14616e-05
1.0343e-07
1.14559e-05
8.38235e-08
1.14547e-05
8.74734e-08
1.14529e-05
9.83553e-08
1.14495e-05
9.57976e-08
1.14481e-05
8.93239e-08
1.14497e-05
9.0246e-08
1.14521e-05
9.30671e-08
1.1455e-05
9.42887e-08
1.14588e-05
9.31471e-08
1.14639e-05
9.18639e-08
1.14701e-05
9.10672e-08
8.98549e-08
1.14769e-05
1.20653e-05
2.94232e-08
1.20486e-05
-5.42418e-08
1.20461e-05
-8.18811e-09
1.20378e-05
6.71601e-08
1.20238e-05
3.46501e-08
1.20208e-05
4.58977e-08
1.20176e-05
1.02423e-07
1.20085e-05
1.12604e-07
1.20014e-05
9.0857e-08
1.19997e-05
8.9183e-08
1.19986e-05
9.94984e-08
1.19957e-05
9.86344e-08
1.19942e-05
9.08724e-08
1.19958e-05
8.86905e-08
1.19985e-05
9.036e-08
1.20021e-05
9.06251e-08
1.20063e-05
8.89697e-08
1.20116e-05
8.65975e-08
1.20179e-05
8.46989e-08
8.28511e-08
1.20249e-05
1.26422e-05
2.9808e-08
1.26229e-05
-3.49692e-08
1.26211e-05
-6.37251e-09
1.26133e-05
7.49838e-08
1.25977e-05
5.02261e-08
1.25927e-05
5.08848e-08
1.25904e-05
1.04781e-07
1.25817e-05
1.21307e-07
1.25733e-05
9.92376e-08
1.25707e-05
9.1816e-08
1.257e-05
1.00114e-07
1.25679e-05
1.00754e-07
1.25663e-05
9.24887e-08
1.25676e-05
8.73541e-08
1.25708e-05
8.72532e-08
1.25749e-05
8.64672e-08
1.25797e-05
8.41875e-08
1.25852e-05
8.10805e-08
1.25917e-05
7.81946e-08
7.56522e-08
1.25989e-05
1.32468e-05
2.99588e-08
1.32359e-05
-2.40702e-08
1.32286e-05
9.38343e-10
1.32168e-05
8.67796e-08
1.31993e-05
6.77069e-08
1.31921e-05
5.80603e-08
1.31901e-05
1.06813e-07
1.31822e-05
1.29199e-07
1.31727e-05
1.087e-07
1.31689e-05
9.56558e-08
1.31685e-05
1.00549e-07
1.31672e-05
1.02039e-07
1.31657e-05
9.39796e-08
1.31667e-05
8.63091e-08
1.31703e-05
8.37011e-08
1.31747e-05
8.20091e-08
1.31802e-05
7.87049e-08
1.3186e-05
7.52673e-08
1.31928e-05
7.14742e-08
6.82571e-08
1.32002e-05
1.38801e-05
2.99947e-08
1.38706e-05
-1.45537e-08
1.38607e-05
1.08012e-08
1.3849e-05
9.85699e-08
1.38304e-05
8.62903e-08
1.38205e-05
6.78952e-08
1.38182e-05
1.09146e-07
1.38113e-05
1.36102e-07
1.38012e-05
1.18796e-07
1.3796e-05
1.00881e-07
1.37953e-05
1.0126e-07
1.37947e-05
1.02613e-07
1.37936e-05
9.51002e-08
1.37944e-05
8.54568e-08
1.37981e-05
7.99997e-08
1.3803e-05
7.71552e-08
1.38091e-05
7.25769e-08
1.38152e-05
6.9192e-08
1.38223e-05
6.43814e-08
6.06139e-08
1.38299e-05
1.45434e-05
3.02258e-08
1.45211e-05
7.79114e-09
1.4517e-05
1.49055e-08
1.45112e-05
1.04395e-07
1.44923e-05
1.05171e-07
1.44795e-05
8.06413e-08
1.44762e-05
1.12486e-07
1.44702e-05
1.42077e-07
1.44599e-05
1.29072e-07
1.44533e-05
1.0754e-07
1.44518e-05
1.02697e-07
1.44517e-05
1.02779e-07
1.44511e-05
9.56443e-08
1.4452e-05
8.46249e-08
1.44555e-05
7.64236e-08
1.4461e-05
7.17302e-08
1.44675e-05
6.60085e-08
1.44741e-05
6.26774e-08
1.44816e-05
5.68485e-08
5.25774e-08
1.44896e-05
1.52387e-05
3.03621e-08
1.5222e-05
2.44972e-08
1.52109e-05
2.60329e-08
1.5204e-05
1.11343e-07
1.51859e-05
1.23218e-07
1.51704e-05
9.61211e-08
1.51654e-05
1.17522e-07
1.51601e-05
1.47408e-07
1.515e-05
1.39098e-07
1.51421e-05
1.15519e-07
1.51395e-05
1.05218e-07
1.51394e-05
1.0288e-07
1.51395e-05
9.55568e-08
1.51405e-05
8.36342e-08
1.5144e-05
7.29675e-08
1.51499e-05
6.58425e-08
1.51565e-05
5.94039e-08
1.51641e-05
5.50058e-08
1.51717e-05
4.92443e-08
4.38595e-08
1.51805e-05
1.59672e-05
3.05394e-08
1.59551e-05
3.65936e-08
1.59371e-05
4.39565e-08
1.59298e-05
1.18715e-07
1.59125e-05
1.40444e-07
1.58949e-05
1.1379e-07
1.58876e-05
1.24782e-07
1.58824e-05
1.52574e-07
1.58729e-05
1.48686e-07
1.58638e-05
1.24585e-07
1.58599e-05
1.09092e-07
1.58595e-05
1.03287e-07
1.586e-05
9.5036e-08
1.58613e-05
8.23477e-08
1.58647e-05
6.95545e-08
1.58707e-05
5.98871e-08
1.58776e-05
5.24566e-08
1.58862e-05
4.64633e-08
1.58945e-05
4.08851e-08
3.50246e-08
1.59034e-05
1.67292e-05
3.19509e-08
1.67009e-05
6.49127e-08
1.66952e-05
4.95885e-08
1.66905e-05
1.23438e-07
1.66737e-05
1.57308e-07
1.66544e-05
1.33077e-07
1.66445e-05
1.34626e-07
1.66389e-05
1.58203e-07
1.66297e-05
1.57901e-07
1.66198e-05
1.3448e-07
1.66144e-05
1.14452e-07
1.66134e-05
1.04344e-07
1.6614e-05
9.44146e-08
1.66156e-05
8.0709e-08
1.66191e-05
6.61171e-08
1.66249e-05
5.40556e-08
1.66325e-05
4.48455e-08
1.66415e-05
3.74677e-08
1.66511e-05
3.12527e-08
2.60161e-08
1.66601e-05
1.75298e-05
3.25566e-08
1.75355e-05
5.91411e-08
1.75043e-05
8.08373e-08
1.74863e-05
1.41382e-07
1.74705e-05
1.73121e-07
1.74503e-05
1.53346e-07
1.74377e-05
1.47174e-07
1.7431e-05
1.64956e-07
1.74219e-05
1.66946e-07
1.74114e-05
1.45003e-07
1.74045e-05
1.21339e-07
1.74024e-05
1.06397e-07
1.74027e-05
9.41071e-08
1.74046e-05
7.88594e-08
1.74081e-05
6.25812e-08
1.7414e-05
4.81643e-08
1.74221e-05
3.6773e-08
1.74317e-05
2.78645e-08
1.7442e-05
2.09203e-08
1.55412e-08
1.74525e-05
1.83658e-05
3.50907e-08
1.83389e-05
8.60452e-08
1.83308e-05
8.89334e-08
1.83216e-05
1.50582e-07
1.83057e-05
1.89036e-07
1.82846e-05
1.74449e-07
1.82694e-05
1.624e-07
1.82608e-05
1.7353e-07
1.82515e-05
1.76249e-07
1.82404e-05
1.56122e-07
1.82319e-05
1.29799e-07
1.82286e-05
1.09749e-07
1.82281e-05
9.45943e-08
1.82299e-05
7.70711e-08
1.82335e-05
5.89105e-08
1.82396e-05
4.20736e-08
1.82481e-05
2.83198e-08
1.82584e-05
1.75442e-08
1.82698e-05
9.53116e-09
3.77229e-09
1.82816e-05
1.92438e-05
3.76778e-08
1.92361e-05
9.37045e-08
1.92065e-05
1.1855e-07
1.91958e-05
1.6128e-07
1.918e-05
2.04836e-07
1.91588e-05
1.95702e-07
1.91409e-05
1.80252e-07
1.91299e-05
1.84576e-07
1.91198e-05
1.86341e-07
1.9108e-05
1.67889e-07
1.9098e-05
1.398e-07
1.90929e-05
1.14832e-07
1.90913e-05
9.62697e-08