/*--------------------------------*- C++ -*----------------------------------*\
| =========                 |                                                 |
| \\      /  F ield         | OpenFOAM: The Open Source CFD Toolbox           |
|  \\    /   O peration     | Version:  v2012                                 |
|   \\  /    A nd           | Website:  www.openfoam.com                      |
|    \\/     M anipulation  |                                                 |
\*---------------------------------------------------------------------------*/
FoamFile
{
    version     2.0;
    format      ascii;
    class       volVectorField;
    location    "4.5";
    object      U;
}
// * * * * * * * * * * * * * * * * * * * * * * * * * * * * * * * * * * * * * //

dimensions      [0 1 -1 0 0 0 0];


internalField   nonuniform List<vector> 
17600
(
(0.827234 0.000687085 0)
(1.1668 -0.00184344 0)
(0.843914 0.000334944 0)
(1.14461 -0.00238256 0)
(0.866687 0.00417321 0)
(1.13338 -0.00329292 0)
(0.875202 0.00770619 0)
(1.12531 -0.00417238 0)
(0.869787 0.00608247 0)
(1.11571 -0.00206183 0)
(0.863811 0.00281217 0)
(1.10454 3.31595e-05 0)
(0.859742 0.000959076 0)
(1.09726 0.000860054 0)
(0.85508 0.00121667 0)
(1.09247 0.000265593 0)
(0.847324 0.00191545 0)
(1.08956 0.000255784 0)
(0.833467 0.00307847 0)
(1.08631 0.000516612 0)
(0.838124 0.00063855 0)
(1.15409 -0.00177825 0)
(0.855483 0.000308105 0)
(1.13179 -0.00235657 0)
(0.878114 0.00407212 0)
(1.11856 -0.0031527 0)
(0.887411 0.00755354 0)
(1.10663 -0.00385765 0)
(0.885079 0.00594398 0)
(1.09212 -0.00173581 0)
(0.886024 0.00271931 0)
(1.07509 0.000362257 0)
(0.892295 0.000850015 0)
(1.05923 0.00116893 0)
(0.90223 0.00117263 0)
(1.04011 0.000585488 0)
(0.915406 0.00218638 0)
(1.01337 0.000269704 0)
(0.933681 0.00447851 0)
(0.972069 -0.000171972 0)
(0.859172 0.000607045 0)
(1.13064 -0.00172249 0)
(0.878059 0.000294338 0)
(1.10796 -0.00236061 0)
(0.900613 0.00399829 0)
(1.09297 -0.00304307 0)
(0.911118 0.00745099 0)
(1.07833 -0.00360398 0)
(0.913432 0.00588579 0)
(1.05898 -0.00154156 0)
(0.922021 0.00277172 0)
(1.03703 0.000395111 0)
(0.934964 0.00100421 0)
(1.01756 0.00107188 0)
(0.948392 0.00148236 0)
(0.99877 0.000364484 0)
(0.959346 0.00267176 0)
(0.980088 2.10869e-05 0)
(0.965567 0.00497288 0)
(0.962822 0.000729079 0)
(0.887306 0.000613763 0)
(1.10038 -0.00171799 0)
(0.907366 0.000320871 0)
(1.07809 -0.00240656 0)
(0.928608 0.00399331 0)
(1.0636 -0.00300473 0)
(0.939208 0.00744335 0)
(1.05033 -0.00348559 0)
(0.944579 0.00597481 0)
(1.03114 -0.00153364 0)
(0.95553 0.00297416 0)
(1.01113 0.000265054 0)
(0.966215 0.00127128 0)
(0.996556 0.000870325 0)
(0.973104 0.00179912 0)
(0.986585 0.000177679 0)
(0.975153 0.00300869 0)
(0.978753 -9.6615e-06 0)
(0.972701 0.00522349 0)
(0.971236 0.00176649 0)
(0.917784 0.000652743 0)
(1.0691 -0.00176164 0)
(0.937066 0.000385679 0)
(1.04896 -0.00247703 0)
(0.95478 0.0040217 0)
(1.03771 -0.00300566 0)
(0.963666 0.00745806 0)
(1.02943 -0.00343586 0)
(0.969443 0.00610422 0)
(1.01505 -0.00157793 0)
(0.978139 0.00318283 0)
(1.00108 0.000177554 0)
(0.983488 0.00147816 0)
(0.992552 0.000786359 0)
(0.984642 0.00198173 0)
(0.988038 0.000151042 0)
(0.982684 0.00319105 0)
(0.983572 0.000119694 0)
(0.978731 0.00541896 0)
(0.977114 0.00275664 0)
(0.945698 0.000710528 0)
(1.04239 -0.00183012 0)
(0.961788 0.000467378 0)
(1.02613 -0.00254452 0)
(0.974212 0.00404634 0)
(1.01942 -0.00301266 0)
(0.980299 0.00743658 0)
(1.01696 -0.00340376 0)
(0.985145 0.00618104 0)
(1.00843 -0.00159685 0)
(0.990692 0.00331281 0)
(0.999864 0.000157182 0)
(0.992433 0.00160791 0)
(0.994747 0.000774051 0)
(0.991262 0.00209198 0)
(0.991975 0.000182224 0)
(0.988431 0.00331478 0)
(0.98816 0.000303405 0)
(0.984423 0.00556136 0)
(0.982156 0.00367022 0)
(0.96765 0.000769302 0)
(1.0234 -0.00189789 0)
(0.979109 0.000543196 0)
(1.01165 -0.00258521 0)
(0.986024 0.00404971 0)
(1.00881 -0.00300868 0)
(0.98942 0.00736419 0)
(1.01057 -0.0033745 0)
(0.993424 0.00618653 0)
(1.00645 -0.00158609 0)
(0.997018 0.00336607 0)
(1.00121 0.000175875 0)
(0.997372 0.00168683 0)
(0.997647 0.000787341 0)
(0.995691 0.00217126 0)
(0.995433 0.000238801 0)
(0.992811 0.0033928 0)
(0.99199 0.00056306 0)
(0.98887 0.00561939 0)
(0.986574 0.00455509 0)
(0.982596 0.000813698 0)
(1.01209 -0.00194846 0)
(0.989504 0.000600841 0)
(1.00424 -0.00259126 0)
(0.992172 0.00403206 0)
(1.00361 -0.00299002 0)
(0.993655 0.00725367 0)
(1.00743 -0.00334615 0)
(0.997284 0.00613885 0)
(1.00594 -0.00155963 0)
(1.00016 0.00337249 0)
(1.00259 0.000210232 0)
(1.00033 0.00173627 0)
(0.999955 0.000815929 0)
(0.998758 0.00222523 0)
(0.998136 0.000324219 0)
(0.996048 0.00342532 0)
(0.995066 0.000895344 0)
(0.992316 0.0056052 0)
(0.990189 0.00540255 0)
(0.991487 0.000837322 0)
(1.00632 -0.00197786 0)
(0.994962 0.000639066 0)
(1.00121 -0.00257047 0)
(0.995253 0.00400241 0)
(1.00141 -0.00295866 0)
(0.995633 0.00712339 0)
(1.00577 -0.00331533 0)
(0.99909 0.00605569 0)
(1.00573 -0.00152294 0)
(1.00186 0.00334722 0)
(1.00358 0.000253497 0)
(1.00228 0.0017637 0)
(1.00169 0.000855523 0)
(1.00099 0.00225061 0)
(1.00026 0.000441058 0)
(0.998546 0.00341158 0)
(0.997545 0.00128227 0)
(0.995118 0.00554738 0)
(0.993169 0.00618329 0)
(0.996194 0.000842894 0)
(1.00366 -0.00199066 0)
(0.997558 0.000662456 0)
(1.00019 -0.00253632 0)
(0.997084 0.00396827 0)
(1.0006 -0.00291775 0)
(0.99694 0.0069854 0)
(1.00484 -0.00327712 0)
(1.00017 0.0059463 0)
(1.00559 -0.00147513 0)
(1.00295 0.00329183 0)
(1.00429 0.000304036 0)
(1.00368 0.00176244 0)
(1.00302 0.000906987 0)
(1.00271 0.00224348 0)
(1.00196 0.000587735 0)
(1.00054 0.0033532 0)
(0.99957 0.00170511 0)
(0.997441 0.00547532 0)
(0.995668 0.00686673 0)
(0.998498 0.000837336 0)
(1.00238 -0.00199346 0)
(0.998739 0.000676381 0)
(0.999834 -0.00249998 0)
(0.998465 0.00393141 0)
(1.00039 -0.00287037 0)
(0.998155 0.00684389 0)
(1.00433 -0.00322724 0)
(1.00105 0.0058152 0)
(1.00553 -0.0014139 0)
(1.00376 0.00320611 0)
(1.00481 0.000365509 0)
(1.00473 0.00172582 0)
(1.00405 0.000975264 0)
(1.00401 0.00220007 0)
(1.00328 0.000762321 0)
(1.00209 0.00325921 0)
(1.00118 0.00214298 0)
(0.999317 0.00541889 0)
(0.997716 0.00742949 0)
(0.999607 0.000826863 0)
(1.00164 -0.00199106 0)
(0.99928 0.000684689 0)
(0.999626 -0.00246749 0)
(0.999574 0.00388981 0)
(1.00042 -0.00281889 0)
(0.999298 0.00669798 0)
(1.00411 -0.00316265 0)
(1.00182 0.00566418 0)
(1.00553 -0.00133592 0)
(1.00438 0.00309127 0)
(1.00519 0.000444658 0)
(1.00547 0.00165377 0)
(1.0048 0.00106453 0)
(1.00493 0.00211976 0)
(1.00425 0.000961447 0)
(1.00322 0.00314768 0)
(1.00238 0.00257092 0)
(1.00075 0.0054062 0)
(0.999309 0.00786518 0)
(1.00016 0.000815007 0)
(1.00116 -0.00198593 0)
(0.999533 0.000689605 0)
(0.999456 -0.00244034 0)
(1.0004 0.00384099 0)
(1.00053 -0.00276449 0)
(1.00024 0.00654522 0)
(1.00405 -0.00308189 0)
(1.00243 0.00549349 0)
(1.00556 -0.00123743 0)
(1.00481 0.00294829 0)
(1.00544 0.000543165 0)
(1.00595 0.00154852 0)
(1.00529 0.00117423 0)
(1.00553 0.00200913 0)
(1.00489 0.00117693 0)
(1.00398 0.0030416 0)
(1.00321 0.00296219 0)
(1.00177 0.0054544 0)
(1.00048 0.00818689 0)
(1.00046 0.000803036 0)
(1.00085 -0.00197915 0)
(0.999651 0.000692349 0)
(0.999332 -0.00241736 0)
(1.00094 0.00378364 0)
(1.00066 -0.00270729 0)
(1.00091 0.00638331 0)
(1.00407 -0.00298458 0)
(1.00287 0.00530302 0)
(1.0056 -0.00111619 0)
(1.00509 0.00277724 0)
(1.00559 0.000664453 0)
(1.00623 0.00141426 0)
(1.00558 0.00130018 0)
(1.00587 0.00188081 0)
(1.00528 0.00139408 0)
(1.00446 0.00296521 0)
(1.00374 0.00329669 0)
(1.00249 0.00556388 0)
(1.00131 0.00841887 0)
(1.00063 0.000791063 0)
(1.00066 -0.00197116 0)
(0.999705 0.000693585 0)
(0.999263 -0.00239642 0)
(1.00126 0.00371729 0)
(1.00078 -0.00264619 0)
(1.00132 0.00620972 0)
(1.00412 -0.00286997 0)
(1.00315 0.00509192 0)
(1.00562 -0.000971089 0)
(1.00526 0.00257854 0)
(1.00564 0.000808746 0)
(1.00639 0.00125639 0)
(1.00574 0.00143815 0)
(1.00605 0.00174971 0)
(1.0055 0.00159574 0)
(1.00475 0.00293613 0)
(1.00409 0.00357212 0)
(1.00299 0.00572173 0)
(1.00192 0.00858786 0)
(1.00072 0.000778844 0)
(1.00055 -0.0019621 0)
(0.999733 0.000693466 0)
(0.999239 -0.00237523 0)
(1.00144 0.00364153 0)
(1.00089 -0.00257935 0)
(1.00157 0.0060221 0)
(1.00416 -0.00273735 0)
(1.00333 0.00485809 0)
(1.0056 -0.000800111 0)
(1.00538 0.00235203 0)
(1.00565 0.000972175 0)
(1.00647 0.0010807 0)
(1.00581 0.00158102 0)
(1.00614 0.00163178 0)
(1.00563 0.00176588 0)
(1.00495 0.00296138 0)
(1.00433 0.0038015 0)
(1.00338 0.00590729 0)
(1.00239 0.00872024 0)
(1.00078 0.00076614 0)
(1.00049 -0.00195191 0)
(0.999754 0.000691591 0)
(0.999243 -0.00235182 0)
(1.00154 0.00355597 0)
(1.00097 -0.00250516 0)
(1.0017 0.00581901 0)
(1.00418 -0.00258668 0)
(1.00345 0.00460084 0)
(1.00556 -0.000605524 0)
(1.00546 0.00210266 0)
(1.00562 0.00114906 0)
(1.00652 0.000893255 0)
(1.00585 0.00171417 0)
(1.00618 0.0015444 0)
(1.00572 0.00189138 0)
(1.00509 0.00303865 0)
(1.00452 0.00399931 0)
(1.00371 0.00609507 0)
(1.00279 0.00883506 0)
(1.00082 0.000752747 0)
(1.00044 -0.00194029 0)
(0.999777 0.0006874 0)
(0.999263 -0.00232502 0)
(1.0016 0.00346038 0)
(1.00103 -0.0024222 0)
(1.00177 0.00559927 0)
(1.00418 -0.00241705 0)
(1.00354 0.00431892 0)
(1.0055 -0.000387932 0)
(1.00553 0.00183069 0)
(1.00557 0.00133641 0)
(1.00656 0.000710845 0)
(1.00586 0.00182391 0)
(1.00621 0.00150269 0)
(1.00579 0.00196966 0)
(1.00522 0.00315822 0)
(1.0047 0.00417966 0)
(1.00402 0.0062635 0)
(1.00315 0.00893849 0)
(1.00085 0.000738431 0)
(1.00041 -0.00192664 0)
(0.999804 0.000680091 0)
(0.999291 -0.00229354 0)
(1.00165 0.00335353 0)
(1.00108 -0.00232848 0)
(1.00182 0.00536128 0)
(1.00415 -0.00222723 0)
(1.00361 0.00401194 0)
(1.00543 -0.000150424 0)
(1.0056 0.00154172 0)
(1.00552 0.00152457 0)
(1.00659 0.000548003 0)
(1.00588 0.00189392 0)
(1.00622 0.00151376 0)
(1.00586 0.00201135 0)
(1.00534 0.0033077 0)
(1.00486 0.00436185 0)
(1.00432 0.00640499 0)
(1.00349 0.00902914 0)
(1.00087 0.000722964 0)
(1.00038 -0.00191026 0)
(0.999834 0.00066851 0)
(0.999325 -0.00225569 0)
(1.00169 0.00323313 0)
(1.00113 -0.00222184 0)
(1.00185 0.00510233 0)
(1.00412 -0.00201646 0)
(1.00368 0.00368308 0)
(1.00534 9.07437e-05 0)
(1.00566 0.0012503 0)
(1.00547 0.00169635 0)
(1.00662 0.000413236 0)
(1.0059 0.0019095 0)
(1.00624 0.00157345 0)
(1.00593 0.00202904 0)
(1.00548 0.00346577 0)
(1.00503 0.00456248 0)
(1.00462 0.00652528 0)
(1.00383 0.00910538 0)
(1.00089 0.000706161 0)
(1.00035 -0.00189017 0)
(0.999863 0.000650924 0)
(0.999365 -0.00221007 0)
(1.00172 0.00309778 0)
(1.00117 -0.0021004 0)
(1.00187 0.00482157 0)
(1.00409 -0.00178633 0)
(1.00375 0.00333428 0)
(1.00526 0.00034343 0)
(1.00573 0.000962276 0)
(1.00541 0.0018395 0)
(1.00663 0.000321357 0)
(1.00593 0.00187113 0)
(1.00625 0.00167231 0)
(1.00602 0.00203939 0)
(1.00563 0.00360892 0)
(1.0052 0.0047896 0)
(1.00492 0.00664192 0)
(1.00417 0.0091698 0)
(1.0009 0.000688019 0)
(1.00034 -0.00186566 0)
(0.999887 0.000625918 0)
(0.999411 -0.00215518 0)
(1.00175 0.00294653 0)
(1.00121 -0.00196439 0)
(1.0019 0.00452249 0)
(1.00405 -0.00154368 0)
(1.00382 0.00297401 0)
(1.00517 0.000600842 0)
(1.00579 0.000690407 0)
(1.00537 0.00194397 0)
(1.00664 0.000278681 0)
(1.00598 0.00178396 0)
(1.00626 0.00179235 0)
(1.00611 0.00206147 0)
(1.0058 0.00372265 0)
(1.00539 0.00503812 0)
(1.00522 0.0067732 0)
(1.00451 0.00922611 0)
(1.0009 0.000668135 0)
(1.00033 -0.00183508 0)
(0.999904 0.000591849 0)
(0.999465 -0.00209004 0)
(1.00178 0.00277822 0)
(1.00126 -0.00181523 0)
(1.00192 0.0042075 0)
(1.00401 -0.0012916 0)
(1.00389 0.00261164 0)
(1.00508 0.000836838 0)
(1.00584 0.000444318 0)
(1.00534 0.00199971 0)
(1.00663 0.000279801 0)
(1.00603 0.00166099 0)
(1.00627 0.00190661 0)
(1.00621 0.00210385 0)
(1.00599 0.00379556 0)
(1.00558 0.00528998 0)
(1.00552 0.00692673 0)
(1.00486 0.00928179 0)
(1.00088 0.000645301 0)
(1.00033 -0.00179533 0)
(0.99991 0.000544017 0)
(0.99953 -0.00201136 0)
(1.0018 0.00258915 0)
(1.00132 -0.00165104 0)
(1.00193 0.00387261 0)
(1.00397 -0.00102785 0)
(1.00396 0.00224545 0)
(1.005 0.001055 0)
(1.00588 0.000237042 0)
(1.00532 0.0020009 0)
(1.0066 0.000318757 0)
(1.0061 0.00151997 0)
(1.00629 0.00199848 0)
(1.00631 0.0021613 0)
(1.00619 0.00381921 0)
(1.0058 0.00551867 0)
(1.00581 0.00710082 0)
(1.00522 0.00935895 0)
(1.00085 0.000622042 0)
(1.00035 -0.00174974 0)
(0.999904 0.000484933 0)
(0.999606 -0.00192522 0)
(1.00181 0.00238821 0)
(1.00138 -0.00148373 0)
(1.00194 0.00353529 0)
(1.00394 -0.000780774 0)
(1.00401 0.00190856 0)
(1.00493 0.00122253 0)
(1.00591 9.73166e-05 0)
(1.00532 0.00192738 0)
(1.00657 0.000409821 0)
(1.00618 0.00134902 0)
(1.00631 0.00208961 0)
(1.00642 0.00220481 0)
(1.00641 0.00379316 0)
(1.00604 0.00562599 0)
(1.00611 0.00725943 0)
(1.00558 0.00945092 0)
(1.0008 0.000595569 0)
(1.00038 -0.00169105 0)
(0.999885 0.000409071 0)
(0.999692 -0.00182626 0)
(1.00181 0.00217008 0)
(1.00146 -0.00130899 0)
(1.00194 0.00319816 0)
(1.00391 -0.000549483 0)
(1.00406 0.00160245 0)
(1.00487 0.00134332 0)
(1.00591 -9.09837e-06 0)
(1.00533 0.00181232 0)
(1.00651 0.000512557 0)
(1.00627 0.00117819 0)
(1.00634 0.00215117 0)
(1.00652 0.00226351 0)
(1.00663 0.00371053 0)
(1.00631 0.00561758 0)
(1.00641 0.00729253 0)
(1.00596 0.00937688 0)
(1.00074 0.000565501 0)
(1.00043 -0.00161997 0)
(0.999855 0.00032038 0)
(0.999786 -0.00171807 0)
(1.0018 0.00193856 0)
(1.00153 -0.00113133 0)
(1.00194 0.00286848 0)
(1.00389 -0.00033416 0)
(1.0041 0.00132193 0)
(1.00482 0.00142816 0)
(1.00591 -8.85066e-05 0)
(1.00536 0.00169365 0)
(1.00645 0.000608762 0)
(1.00636 0.00103316 0)
(1.00639 0.00215639 0)
(1.00663 0.00236644 0)
(1.00685 0.00368883 0)
(1.0066 0.00564869 0)
(1.00672 0.00736113 0)
(1.00636 0.00936112 0)
(1.00067 0.000535195 0)
(1.00048 -0.00154009 0)
(0.999817 0.000221861 0)
(0.999885 -0.00160735 0)
(1.00178 0.00170516 0)
(1.00161 -0.000969229 0)
(1.00193 0.00256949 0)
(1.00387 -0.000165049 0)
(1.00414 0.0010928 0)
(1.00477 0.00146368 0)
(1.00588 -0.000125086 0)
(1.0054 0.00154404 0)
(1.00638 0.000739396 0)
(1.00646 0.000924743 0)
(1.00645 0.00218 0)
(1.00674 0.0025481 0)
(1.00708 0.00378601 0)
(1.00691 0.00572528 0)
(1.00703 0.0075069 0)
(1.00677 0.0093879 0)
(1.0006 0.000501648 0)
(1.00052 -0.00144769 0)
(0.999776 0.000111452 0)
(0.999983 -0.00149075 0)
(1.00177 0.0014698 0)
(1.00169 -0.000820733 0)
(1.00192 0.00228684 0)
(1.00385 -1.46738e-05 0)
(1.00417 0.00088453 0)
(1.00473 0.00148296 0)
(1.00585 -0.000138966 0)
(1.00544 0.00137624 0)
(1.00631 0.000905664 0)
(1.00655 0.000925945 0)
(1.00653 0.00225693 0)
(1.00686 0.00282699 0)
(1.0073 0.0039376 0)
(1.00724 0.00583301 0)
(1.00736 0.00764558 0)
(1.00717 0.00943528 0)
(1.00053 0.000466756 0)
(1.00057 -0.00135026 0)
(0.999737 1.52711e-06 0)
(1.00008 -0.00138582 0)
(1.00176 0.0012518 0)
(1.00176 -0.000703509 0)
(1.00191 0.00203474 0)
(1.00382 0.000107755 0)
(1.00419 0.000696246 0)
(1.00469 0.00148846 0)
(1.0058 -9.80845e-05 0)
(1.0055 0.00124492 0)
(1.00625 0.00110649 0)
(1.00663 0.00103232 0)
(1.00663 0.00233912 0)
(1.00699 0.00310183 0)
(1.00752 0.00410853 0)
(1.00757 0.00592262 0)
(1.00769 0.0077322 0)
(1.00756 0.00944884 0)
(1.00046 0.000431366 0)
(1.0006 -0.00124448 0)
(0.999701 -0.000115876 0)
(1.00016 -0.00129702 0)
(1.00175 0.00104832 0)
(1.00183 -0.000617421 0)
(1.0019 0.00180827 0)
(1.00379 0.000203732 0)
(1.00422 0.000534587 0)
(1.00466 0.00148423 0)
(1.00575 1.99129e-05 0)
(1.00557 0.00117353 0)
(1.0062 0.00133327 0)
(1.00671 0.00119337 0)
(1.00676 0.00240226 0)
(1.00713 0.00331385 0)
(1.00774 0.00426579 0)
(1.00791 0.00596358 0)
(1.00803 0.00775193 0)
(1.00794 0.00940409 0)
(1.0004 0.000395918 0)
(1.00062 -0.00113958 0)
(0.999672 -0.000222783 0)
(1.00023 -0.00122975 0)
(1.00175 0.000862592 0)
(1.00189 -0.000553782 0)
(1.00191 0.00159095 0)
(1.00375 0.000301197 0)
(1.00424 0.000392154 0)
(1.00463 0.00149539 0)
(1.0057 0.000191583 0)
(1.00564 0.00113773 0)
(1.00616 0.001536 0)
(1.00677 0.00138351 0)
(1.00689 0.00245241 0)
(1.00728 0.00347334 0)
(1.00795 0.0043982 0)
(1.00825 0.00597248 0)
(1.00838 0.0077171 0)
(1.0083 0.00931455 0)
(1.00035 0.000361172 0)
(1.00063 -0.00103653 0)
(0.999647 -0.000309727 0)
(1.0003 -0.00120352 0)
(1.00175 0.000700374 0)
(1.00194 -0.000521034 0)
(1.00191 0.00139259 0)
(1.0037 0.000399536 0)
(1.00427 0.000298689 0)
(1.00461 0.00152348 0)
(1.00565 0.000394642 0)
(1.0057 0.00111413 0)
(1.00615 0.00168128 0)
(1.00682 0.00157171 0)
(1.00702 0.00249148 0)
(1.00744 0.00357877 0)
(1.00816 0.00449488 0)
(1.00858 0.00595326 0)
(1.00873 0.00764019 0)
(1.00865 0.00919345 0)
(1.00031 0.000329111 0)
(1.00063 -0.000940721 0)
(0.999625 -0.00037213 0)
(1.00035 -0.0012034 0)
(1.00176 0.000539228 0)
(1.00198 -0.000506672 0)
(1.00193 0.00119247 0)
(1.00364 0.000520364 0)
(1.0043 0.00030211 0)
(1.0046 0.00155889 0)
(1.00559 0.000626002 0)
(1.00576 0.00111179 0)
(1.00615 0.00178157 0)
(1.00686 0.00175381 0)
(1.00716 0.00254263 0)
(1.0076 0.00365491 0)
(1.00836 0.00457942 0)
(1.0089 0.00593082 0)
(1.00909 0.00754659 0)
(1.009 0.00905609 0)
(1.00027 0.000300382 0)
(1.00061 -0.000862533 0)
(0.999604 -0.000396684 0)
(1.00039 -0.00122755 0)
(1.00178 0.000382274 0)
(1.00201 -0.000489092 0)
(1.00196 0.000995001 0)
(1.00359 0.000665358 0)
(1.00433 0.000369318 0)
(1.00459 0.00158156 0)
(1.00552 0.0008538 0)
(1.00581 0.00113361 0)
(1.00617 0.00184469 0)
(1.00689 0.00192415 0)
(1.00729 0.00261694 0)
(1.00778 0.00372427 0)
(1.00857 0.00466602 0)
(1.00922 0.00591278 0)
(1.00946 0.00743686 0)
(1.00935 0.00889349 0)
(1.00024 0.00027691 0)
(1.00059 -0.000801356 0)
(0.99958 -0.000388284 0)
(1.00042 -0.0012695 0)
(1.0018 0.000224918 0)
(1.00204 -0.000452555 0)
(1.002 0.000857671 0)
(1.00355 0.000813897 0)
(1.00435 0.000455657 0)
(1.00459 0.00157157 0)
(1.00546 0.00104823 0)
(1.00585 0.00117849 0)
(1.00619 0.00188361 0)
(1.00693 0.00207086 0)
(1.00743 0.00270043 0)
(1.00796 0.0037823 0)
(1.00879 0.00474083 0)
(1.00952 0.00588339 0)
(1.00982 0.00729537 0)
(1.0097 0.00868902 0)
(1.00021 0.000255266 0)
(1.00057 -0.000757181 0)
(0.999554 -0.000353993 0)
(1.00044 -0.00128865 0)
(1.00182 6.58255e-05 0)
(1.00206 -0.000382098 0)
(1.00204 0.000765644 0)
(1.00351 0.000936207 0)
(1.00436 0.000556376 0)
(1.0046 0.00153512 0)
(1.0054 0.00120839 0)
(1.00587 0.00124677 0)
(1.00623 0.00191923 0)
(1.00697 0.00219579 0)
(1.00756 0.00278241 0)
(1.00814 0.00382765 0)
(1.009 0.00479878 0)
(1.0098 0.00584664 0)
(1.01017 0.00713278 0)
(1.01005 0.00845175 0)
(1.00019 0.000240769 0)
(1.00055 -0.000740488 0)
(0.999525 -0.000295132 0)
(1.00046 -0.00128293 0)
(1.00185 -7.03937e-05 0)
(1.00208 -0.00029192 0)
(1.00209 0.000687101 0)
(1.00347 0.00101759 0)
(1.00437 0.000661605 0)
(1.0046 0.00149064 0)
(1.00534 0.00133959 0)
(1.00588 0.0013384 0)
(1.00628 0.00196638 0)
(1.00702 0.0023125 0)
(1.00769 0.0028629 0)
(1.00834 0.00386411 0)
(1.00921 0.00484165 0)
(1.01007 0.00581394 0)
(1.01051 0.00697018 0)
(1.0104 0.00819895 0)
(1.00016 0.000232259 0)
(1.00053 -0.000749939 0)
(0.999498 -0.000222598 0)
(1.00046 -0.0012348 0)
(1.00189 -0.000201716 0)
(1.00211 -0.000202486 0)
(1.00213 0.00063137 0)
(1.00344 0.00107055 0)
(1.00436 0.00077658 0)
(1.00461 0.00146463 0)
(1.00529 0.00144768 0)
(1.00589 0.00144693 0)
(1.00632 0.00202311 0)
(1.00707 0.00242117 0)
(1.00782 0.00293397 0)
(1.00853 0.00388185 0)
(1.00942 0.00485894 0)
(1.01033 0.00577924 0)
(1.01083 0.00681441 0)
(1.01074 0.00793943 0)
(1.00014 0.000227295 0)
(1.00051 -0.000779843 0)
(0.999475 -0.000145168 0)
(1.00045 -0.00114011 0)
(1.00193 -0.000324904 0)
(1.00214 -0.00011699 0)
(1.00218 0.00060648 0)
(1.00343 0.00110122 0)
(1.00435 0.000897065 0)
(1.00462 0.00146512 0)
(1.00525 0.00153301 0)
(1.0059 0.00155695 0)
(1.00637 0.0020842 0)
(1.00712 0.00251592 0)
(1.00794 0.00299101 0)
(1.00873 0.00387386 0)
(1.00964 0.0048421 0)
(1.01057 0.00573157 0)
(1.01113 0.00666429 0)
(1.01107 0.00767919 0)
(1.00011 0.000228493 0)
(1.0005 -0.000823451 0)
(0.999459 -7.39551e-05 0)
(1.00044 -0.0010082 0)
(1.00197 -0.000428716 0)
(1.00218 -2.76773e-05 0)
(1.00223 0.000620838 0)
(1.00342 0.00111919 0)
(1.00435 0.00101296 0)
(1.00462 0.00148921 0)
(1.00522 0.00160091 0)
(1.00591 0.00165712 0)
(1.00643 0.00215242 0)
(1.00718 0.00260645 0)
(1.00806 0.00304838 0)
(1.00893 0.00385424 0)
(1.00987 0.00479833 0)
(1.01081 0.00566774 0)
(1.01141 0.00651689 0)
(1.01138 0.00742133 0)
(1.00009 0.000229879 0)
(1.0005 -0.000870302 0)
(0.999455 -1.48204e-05 0)
(1.00042 -0.000852054 0)
(1.00202 -0.00050588 0)
(1.00223 5.91375e-05 0)
(1.00228 0.000666585 0)
(1.00341 0.00112887 0)
(1.00434 0.00111561 0)
(1.00463 0.00153243 0)
(1.0052 0.00166214 0)
(1.00593 0.0017392 0)
(1.00649 0.00221683 0)
(1.00724 0.00269262 0)
(1.00817 0.00310772 0)
(1.00913 0.00382719 0)
(1.0101 0.00472694 0)
(1.01105 0.00557843 0)
(1.01167 0.00636284 0)
(1.01167 0.00716459 0)
(1.00006 0.000231354 0)
(1.0005 -0.000922225 0)
(0.999465 8.36093e-06 0)
(1.00039 -0.000683455 0)
(1.00206 -0.000524894 0)
(1.00229 0.00016483 0)
(1.00232 0.000740671 0)
(1.00342 0.00112797 0)
(1.00434 0.00119027 0)
(1.00463 0.00158416 0)
(1.00518 0.00172855 0)
(1.00594 0.00180777 0)
(1.00655 0.00226946 0)
(1.00731 0.00277288 0)
(1.00828 0.00317064 0)
(1.00932 0.00379784 0)
(1.01034 0.0046318 0)
(1.01129 0.00546021 0)
(1.01193 0.00619832 0)
(1.01193 0.00691246 0)
(1.00004 0.000241097 0)
(1.0005 -0.000982325 0)
(0.99949 -1.33851e-05 0)
(1.00037 -0.000533014 0)
(1.00211 -0.000476451 0)
(1.00236 0.000314562 0)
(1.00236 0.000872619 0)
(1.00342 0.00114471 0)
(1.00435 0.00124208 0)
(1.00465 0.00163434 0)
(1.00516 0.00179489 0)
(1.00596 0.00185853 0)
(1.00663 0.00229274 0)
(1.00738 0.00282663 0)
(1.00838 0.00322395 0)
(1.00949 0.00376172 0)
(1.01057 0.00451017 0)
(1.01154 0.00530246 0)
(1.01217 0.00600738 0)
(1.01218 0.0066528 0)
(1.00002 0.000236815 0)
(1.00051 -0.00102622 0)
(0.999532 -0.000137254 0)
(1.00035 -0.000358145 0)
(1.00217 -0.000354926 0)
(1.00245 0.000491963 0)
(1.0024 0.00105372 0)
(1.00342 0.0012088 0)
(1.00436 0.00130214 0)
(1.00466 0.00170707 0)
(1.00514 0.00188885 0)
(1.00597 0.001926 0)
(1.00671 0.00231211 0)
(1.00747 0.00286547 0)
(1.00847 0.00327984 0)
(1.00965 0.00374088 0)
(1.01079 0.00438803 0)
(1.01178 0.00512259 0)
(1.01241 0.00579537 0)
(1.01242 0.00638827 0)
(0.999999 0.000256464 0)
(1.00051 -0.00112882 0)
(0.999592 -0.000192412 0)
(1.00037 -8.8785e-05 0)
(1.00224 -0.000206412 0)
(1.00255 0.000624537 0)
(1.00245 0.00122106 0)
(1.00342 0.00128626 0)
(1.00439 0.00134855 0)
(1.00469 0.00177549 0)
(1.00513 0.00199501 0)
(1.00599 0.00201093 0)
(1.00679 0.00233166 0)
(1.00758 0.00288528 0)
(1.00857 0.00332782 0)
(1.00979 0.00373665 0)
(1.011 0.00428076 0)
(1.01203 0.00493826 0)
(1.01265 0.00557258 0)
(1.01264 0.00612658 0)
(0.999982 0.00028991 0)
(1.00052 -0.00110927 0)
(0.999689 -0.000123361 0)
(1.00038 9.51529e-05 0)
(1.0023 -0.000158018 0)
(1.00267 0.000635501 0)
(1.0025 0.00134347 0)
(1.00341 0.0013716 0)
(1.00442 0.00137798 0)
(1.00474 0.0018202 0)
(1.00514 0.00209126 0)
(1.00599 0.00209951 0)
(1.00688 0.00234031 0)
(1.0077 0.00286244 0)
(1.00868 0.00332717 0)
(1.00992 0.00370587 0)
(1.01119 0.00415401 0)
(1.01226 0.00471829 0)
(1.01289 0.00529927 0)
(1.01286 0.0058186 0)
(0.999968 0.000231727 0)
(1.00053 -0.000861762 0)
(0.999779 -0.000194574 0)
(1.00039 0.000171523 0)
(1.00235 -0.000127973 0)
(1.00279 0.000602017 0)
(1.00256 0.00142865 0)
(1.0034 0.00145373 0)
(1.00444 0.00137564 0)
(1.00479 0.00180153 0)
(1.00514 0.00213738 0)
(1.00599 0.00216142 0)
(1.00694 0.00232575 0)
(1.00781 0.00279422 0)
(1.00879 0.00327784 0)
(1.01003 0.00365182 0)
(1.01135 0.00402725 0)
(1.01246 0.00449671 0)
(1.01312 0.00501141 0)
(1.01307 0.00549284 0)
(0.999952 0.000277658 0)
(1.00052 -0.000881708 0)
(0.999863 -0.000119167 0)
(1.00042 0.000417906 0)
(1.00238 1.25809e-05 0)
(1.00291 0.000618833 0)
(1.00261 0.00155633 0)
(1.00335 0.00163385 0)
(1.00443 0.00147294 0)
(1.00484 0.00184443 0)
(1.00514 0.00224143 0)
(1.00596 0.0022904 0)
(1.00698 0.00237149 0)
(1.00792 0.00275325 0)
(1.0089 0.00323023 0)
(1.01013 0.00360312 0)
(1.01147 0.00392172 0)
(1.01264 0.00429732 0)
(1.01332 0.00473123 0)
(1.01327 0.00516244 0)
(0.999944 0.00032515 0)
(1.00054 -0.000936725 0)
(1 -7.01221e-05 0)
(1.00044 0.00071611 0)
(1.00241 0.000226981 0)
(1.00306 0.000665178 0)
(1.00272 0.00167923 0)
(1.00334 0.00184445 0)
(1.00443 0.00160608 0)
(1.00491 0.00188917 0)
(1.00518 0.00232736 0)
(1.00595 0.00241476 0)
(1.00701 0.00242882 0)
(1.00802 0.00270779 0)
(1.00902 0.00315132 0)
(1.01023 0.00352337 0)
(1.01158 0.00380362 0)
(1.01278 0.00409814 0)
(1.0135 0.00444688 0)
(1.01346 0.00481816 0)
(0.999935 0.000280237 0)
(1.00054 -0.000695678 0)
(1.00015 -0.000129885 0)
(1.0005 0.000851025 0)
(1.00242 0.000399561 0)
(1.00319 0.000672272 0)
(1.00283 0.00170796 0)
(1.00331 0.00198034 0)
(1.00441 0.00169733 0)
(1.00497 0.00187297 0)
(1.00522 0.00232831 0)
(1.00593 0.00247631 0)
(1.00701 0.00245881 0)
(1.0081 0.00264369 0)
(1.00914 0.00302685 0)
(1.01034 0.00339335 0)
(1.01167 0.00365343 0)
(1.0129 0.00388694 0)
(1.01365 0.00415546 0)
(1.01362 0.00446066 0)
(0.999931 0.00029197 0)
(1.00054 -0.000467983 0)
(1.00027 -8.44127e-05 0)
(1.00055 0.000942249 0)
(1.0024 0.000581542 0)
(1.0033 0.000700532 0)
(1.00296 0.00172163 0)
(1.00329 0.00212994 0)
(1.00436 0.00184591 0)
(1.005 0.00190407 0)
(1.00527 0.00233025 0)
(1.0059 0.00253955 0)
(1.00698 0.00250535 0)
(1.00815 0.00259377 0)
(1.00924 0.00287995 0)
(1.01042 0.00321245 0)
(1.01174 0.00345355 0)
(1.01297 0.00364101 0)
(1.01376 0.00383837 0)
(1.01375 0.00407527 0)
(0.999929 0.000290473 0)
(1.00052 -0.000320467 0)
(1.00039 -4.43707e-05 0)
(1.00062 0.00106533 0)
(1.00238 0.000831745 0)
(1.0034 0.000799237 0)
(1.00309 0.00175465 0)
(1.00327 0.00228945 0)
(1.00428 0.00203037 0)
(1.00501 0.00196237 0)
(1.00531 0.00231638 0)
(1.00588 0.00258145 0)
(1.00693 0.00256286 0)
(1.00815 0.0025666 0)
(1.0093 0.00274744 0)
(1.01049 0.00302173 0)
(1.01179 0.00324098 0)
(1.01301 0.0033974 0)
(1.01382 0.00353896 0)
(1.01384 0.00371166 0)
(0.99993 0.000315341 0)
(1.00051 -0.00022234 0)
(1.00051 5.20208e-05 0)
(1.0007 0.00118854 0)
(1.00235 0.00109119 0)
(1.00347 0.000931786 0)
(1.00324 0.00179468 0)
(1.00328 0.00244534 0)
(1.00419 0.00225919 0)
(1.005 0.00207948 0)
(1.00535 0.0023349 0)
(1.00587 0.00262322 0)
(1.00687 0.00263857 0)
(1.00811 0.0025703 0)
(1.00932 0.0026387 0)
(1.01054 0.00282561 0)
(1.01182 0.00300249 0)
(1.01303 0.00312568 0)
(1.01385 0.00321883 0)
(1.01389 0.00333044 0)
(0.999932 0.000313305 0)
(1.00049 -3.62925e-05 0)
(1.00064 0.000140447 0)
(1.0008 0.00131069 0)
(1.00232 0.00138252 0)
(1.00353 0.00113117 0)
(1.00339 0.00185539 0)
(1.00331 0.00257502 0)
(1.0041 0.00248541 0)
(1.00495 0.00221809 0)
(1.00538 0.00235368 0)
(1.00587 0.00261401 0)
(1.00679 0.00266108 0)
(1.00803 0.00255003 0)
(1.0093 0.00251902 0)
(1.01056 0.00260798 0)
(1.01184 0.00272929 0)
(1.01303 0.00281378 0)
(1.01385 0.00286722 0)
(1.0139 0.00292762 0)
(0.999938 0.000277528 0)
(1.00047 0.000196437 0)
(1.00074 0.000271484 0)
(1.00091 0.00143191 0)
(1.00228 0.00166205 0)
(1.00354 0.00136627 0)
(1.00353 0.00191776 0)
(1.00336 0.00266594 0)
(1.00399 0.00269114 0)
(1.00485 0.00238537 0)
(1.00537 0.00239403 0)
(1.00586 0.00259284 0)
(1.00671 0.00265253 0)
(1.00792 0.00252955 0)
(1.00922 0.00241652 0)
(1.01053 0.00240522 0)
(1.01181 0.00245015 0)
(1.01299 0.00248148 0)
(1.0138 0.00249014 0)
(1.01387 0.00250139 0)
(0.999944 0.00033824 0)
(1.00044 0.00032258 0)
(1.00083 0.000375536 0)
(1.00102 0.00146701 0)
(1.00225 0.00185933 0)
(1.00353 0.00158803 0)
(1.00365 0.001983 0)
(1.00342 0.00272938 0)
(1.00389 0.00287476 0)
(1.00473 0.00258254 0)
(1.00532 0.00246476 0)
(1.00583 0.00257627 0)
(1.00661 0.00261672 0)
(1.00777 0.00248769 0)
(1.00909 0.0023045 0)
(1.01043 0.00219433 0)
(1.01173 0.00214385 0)
(1.01291 0.00210932 0)
(1.01371 0.00206497 0)
(1.01379 0.00202802 0)
(0.999954 0.000288118 0)
(1.00039 0.000574319 0)
(1.0009 0.000571037 0)
(1.00114 0.00158371 0)
(1.00223 0.0021293 0)
(1.00349 0.00190857 0)
(1.00373 0.0021565 0)
(1.00349 0.00284265 0)
(1.00381 0.00307935 0)
(1.00457 0.00282121 0)
(1.00522 0.00260091 0)
(1.00576 0.00259472 0)
(1.0065 0.00258944 0)
(1.00759 0.00243945 0)
(1.0089 0.00220095 0)
(1.01026 0.00199517 0)
(1.01159 0.00184658 0)
(1.01277 0.00173337 0)
(1.01358 0.00163029 0)
(1.01366 0.0015426 0)
(0.999962 0.000313397 0)
(1.00038 0.000690239 0)
(1.00094 0.000774096 0)
(1.00125 0.00171243 0)
(1.00221 0.00236705 0)
(1.00342 0.00222709 0)
(1.00378 0.00235726 0)
(1.00355 0.00295155 0)
(1.00372 0.00326171 0)
(1.00438 0.00305328 0)
(1.00505 0.00276894 0)
(1.00563 0.00263979 0)
(1.00634 0.00256085 0)
(1.00737 0.00237369 0)
(1.00864 0.00208421 0)
(1.01001 0.00178888 0)
(1.01136 0.00154075 0)
(1.01256 0.0013384 0)
(1.01337 0.00116797 0)
(1.01347 0.00102496 0)
(0.999971 0.000376651 0)
(1.00033 0.000753471 0)
(1.00099 0.000972489 0)
(1.00137 0.00183274 0)
(1.00222 0.00257789 0)
(1.00335 0.00255236 0)
(1.00379 0.00260287 0)
(1.00361 0.00309379 0)
(1.00365 0.00343903 0)
(1.00418 0.00329445 0)
(1.00485 0.00296583 0)
(1.00545 0.00272522 0)
(1.00615 0.00255081 0)
(1.00712 0.00230363 0)
(1.00834 0.00195787 0)
(1.0097 0.00157453 0)
(1.01106 0.00122426 0)
(1.01227 0.000922964 0)
(1.0131 0.000673607 0)
(1.01322 0.000468075 0)
(0.999979 0.000349223 0)
(1.00031 0.000993193 0)
(1.00101 0.00124717 0)
(1.00147 0.0020147 0)
(1.00222 0.00281557 0)
(1.00326 0.00290872 0)
(1.00376 0.00291049 0)
(1.00363 0.00329047 0)
(1.00358 0.003638 0)
(1.00397 0.00355115 0)
(1.00458 0.00320451 0)
(1.0052 0.00286223 0)
(1.00589 0.00257924 0)
(1.0068 0.00224378 0)
(1.00796 0.0018252 0)
(1.00929 0.00134623 0)
(1.01065 0.000886892 0)
(1.01188 0.00047404 0)
(1.01274 0.000129633 0)
(1.01289 -0.000152934 0)
(0.999986 0.000386187 0)
(1.00028 0.00118058 0)
(1.001 0.00150115 0)
(1.00154 0.00219072 0)
(1.00223 0.00300697 0)
(1.00315 0.00322578 0)
(1.00369 0.00323648 0)
(1.00362 0.00352514 0)
(1.00349 0.00385946 0)
(1.00374 0.00382642 0)
(1.00427 0.00347719 0)
(1.00487 0.00305345 0)
(1.00554 0.00264429 0)
(1.0064 0.00220293 0)
(1.00748 0.00168392 0)
(1.00877 0.00110173 0)
(1.01012 0.00051939 0)
(1.01137 -1.93043e-05 0)
(1.01226 -0.00048174 0)
(1.01246 -0.000866581 0)
(0.999992 0.000427227 0)
(1.00026 0.00130948 0)
(1.00097 0.00175331 0)
(1.00158 0.00240881 0)