/*--------------------------------*- C++ -*----------------------------------*\
| =========                 |                                                 |
| \\      /  F ield         | OpenFOAM: The Open Source CFD Toolbox           |
|  \\    /   O peration     | Version:  v2012                                 |
|   \\  /    A nd           | Website:  www.openfoam.com                      |
|    \\/     M anipulation  |                                                 |
\*---------------------------------------------------------------------------*/
FoamFile
{
    version     2.0;
    format      ascii;
    class       volVectorField;
    location    "4.9";
    object      U;
}
// * * * * * * * * * * * * * * * * * * * * * * * * * * * * * * * * * * * * * //

dimensions      [0 1 -1 0 0 0 0];


internalField   nonuniform List<vector> 
17600
(
(0.825811 0.000293711 0)
(1.16977 -0.00178564 0)
(0.840678 0.000202898 0)
(1.14979 -0.001091 0)
(0.866446 0.0033362 0)
(1.13556 -0.00154439 0)
(0.878292 0.00649229 0)
(1.12311 -0.00434391 0)
(0.874071 0.00673032 0)
(1.11298 -0.00396244 0)
(0.865188 0.00424199 0)
(1.1027 -0.00167022 0)
(0.859914 0.00215319 0)
(1.09495 0.000195858 0)
(0.854009 0.000938495 0)
(1.09066 0.00044646 0)
(0.846142 0.00184983 0)
(1.08817 0.000215937 0)
(0.832162 0.00301823 0)
(1.08512 0.000512808 0)
(0.836869 0.000231574 0)
(1.15729 -0.0017089 0)
(0.852509 0.000161341 0)
(1.13715 -0.00109102 0)
(0.878758 0.00325527 0)
(1.12106 -0.00143729 0)
(0.891946 0.00639369 0)
(1.10497 -0.00404412 0)
(0.889912 0.00659192 0)
(1.08983 -0.00357925 0)
(0.88664 0.00412653 0)
(1.07314 -0.0013486 0)
(0.891194 0.00204288 0)
(1.05649 0.000541864 0)
(0.900288 0.000862144 0)
(1.03805 0.000733173 0)
(0.914121 0.00208762 0)
(1.01203 0.000238559 0)
(0.932408 0.00440362 0)
(0.971058 -0.000178706 0)
(0.858173 0.000187017 0)
(1.13395 -0.00164159 0)
(0.875684 0.000128141 0)
(1.11307 -0.00112647 0)
(0.902536 0.00321373 0)
(1.09524 -0.00137804 0)
(0.917398 0.00635277 0)
(1.07707 -0.00379831 0)
(0.918506 0.00654217 0)
(1.0581 -0.00331277 0)
(0.921746 0.00413918 0)
(1.03631 -0.00123578 0)
(0.933163 0.00216616 0)
(1.01596 0.000434913 0)
(0.946638 0.0011494 0)
(0.997059 0.000506885 0)
(0.958468 0.00255931 0)
(0.979164 -2.64566e-05 0)
(0.96467 0.00489024 0)
(0.96222 0.000717296 0)
(0.886648 0.000178703 0)
(1.10344 -0.00163003 0)
(0.905702 0.000140878 0)
(1.0824 -0.00120702 0)
(0.931515 0.00323888 0)
(1.06519 -0.00139237 0)
(0.946364 0.00639254 0)
(1.04925 -0.00366637 0)
(0.949115 0.00662315 0)
(1.03163 -0.00322091 0)
(0.954654 0.00431613 0)
(1.01171 -0.00129163 0)
(0.964571 0.00240549 0)
(0.996422 0.000266592 0)
(0.972252 0.00145848 0)
(0.985579 0.00031208 0)
(0.975015 0.00288427 0)
(0.9785 -6.20667e-05 0)
(0.972371 0.00513768 0)
(0.971219 0.00174951 0)
(0.917504 0.000202611 0)
(1.07159 -0.00166976 0)
(0.935971 0.000199197 0)
(1.05208 -0.00131636 0)
(0.957943 0.00329477 0)
(1.03852 -0.00144487 0)
(0.970442 0.00644344 0)
(1.02851 -0.00358658 0)
(0.972863 0.00672574 0)
(1.01616 -0.00317907 0)
(0.977005 0.00450386 0)
(1.00206 -0.00133296 0)
(0.982206 0.00259303 0)
(0.993051 0.0001983 0)
(0.984392 0.0016444 0)
(0.987401 0.000283765 0)
(0.982944 0.00305027 0)
(0.983629 5.99363e-05 0)
(0.978694 0.0053277 0)
(0.977333 0.00273156 0)
(0.945753 0.000247292 0)
(1.04414 -0.00173553 0)
(0.960998 0.000280237 0)
(1.02796 -0.00142202 0)
(0.976941 0.00334341 0)
(1.01965 -0.0014991 0)
(0.985857 0.00645031 0)
(1.01628 -0.00351853 0)
(0.987347 0.00677255 0)
(1.00952 -0.00312201 0)
(0.989462 0.00460929 0)
(1.00059 -0.00131057 0)
(0.991304 0.00268713 0)
(0.995166 0.000197706 0)
(0.991082 0.00175886 0)
(0.991326 0.000315104 0)
(0.988639 0.00315213 0)
(0.988117 0.000246123 0)
(0.984312 0.00546653 0)
(0.982252 0.00363748 0)
(0.967941 0.000296164 0)
(1.02443 -0.0018004 0)
(0.978395 0.000360293 0)
(1.01238 -0.00149537 0)
(0.987972 0.00336462 0)
(1.00867 -0.00153662 0)
(0.993604 0.00639971 0)
(1.01016 -0.00345503 0)
(0.994685 0.00675481 0)
(1.00732 -0.00304937 0)
(0.995762 0.00463861 0)
(1.00158 -0.00124811 0)
(0.99625 0.00271737 0)
(0.997808 0.000234877 0)
(0.99536 0.0018309 0)
(0.994662 0.000377717 0)
(0.992808 0.0032119 0)
(0.991735 0.000509462 0)
(0.988547 0.00552108 0)
(0.986443 0.00451629 0)
(0.983008 0.000334289 0)
(1.01253 -0.00184711 0)
(0.988751 0.000425945 0)
(1.00424 -0.00152756 0)
(0.993348 0.00335864 0)
(1.00327 -0.00155568 0)
(0.996753 0.00630557 0)
(1.00724 -0.00339803 0)
(0.998014 0.00669068 0)
(1.00667 -0.00297129 0)
(0.998974 0.00462232 0)
(1.0028 -0.00116868 0)
(0.999258 0.00271571 0)
(0.999964 0.000294076 0)
(0.998333 0.00187028 0)
(0.997317 0.000476179 0)
(0.995909 0.00322825 0)
(0.994687 0.000843694 0)
(0.991849 0.00550487 0)
(0.989911 0.0053575 0)
(0.991927 0.000355014 0)
(1.00638 -0.00187177 0)
(0.99416 0.00047418 0)
(1.00084 -0.00152767 0)
(0.995864 0.00333683 0)
(1.00096 -0.00156104 0)
(0.998022 0.00618815 0)
(1.00572 -0.00334586 0)
(0.99963 0.00659486 0)
(1.00641 -0.00288897 0)
(1.00085 0.00457283 0)
(1.0038 -0.00107877 0)
(1.00135 0.00269016 0)
(1.00168 0.000368507 0)
(1.0006 0.00187966 0)
(0.999496 0.000608606 0)
(0.998391 0.0031988 0)
(0.997161 0.00123238 0)
(0.994622 0.0054486 0)
(0.992855 0.00613007 0)
(0.996603 0.000360487 0)
(1.00349 -0.00187978 0)
(0.99675 0.000507674 0)
(0.999761 -0.00151106 0)
(0.997366 0.00330947 0)
(1.00014 -0.00155727 0)
(0.998887 0.00606197 0)
(1.00483 -0.00329396 0)
(1.0007 0.00647483 0)
(1.00625 -0.00279977 0)
(1.00216 0.0044901 0)
(1.00459 -0.0009759 0)
(1.00297 0.00263193 0)
(1.00308 0.000462365 0)
(1.00242 0.00185485 0)
(1.0013 0.000769619 0)
(1.00044 0.00312669 0)
(0.999247 0.00165763 0)
(0.996988 0.00538194 0)
(0.995389 0.00680297 0)
(0.998852 0.000357008 0)
(1.00208 -0.00187866 0)
(0.997963 0.0005304 0)
(0.999524 -0.00149054 0)
(0.99859 0.0032803 0)
(0.999977 -0.0015474 0)
(0.999798 0.00593373 0)
(1.00429 -0.00323753 0)
(1.00161 0.00633448 0)
(1.00614 -0.00270077 0)
(1.00318 0.00437414 0)
(1.00518 -0.000857218 0)
(1.00421 0.00253441 0)
(1.00417 0.000580403 0)
(1.00384 0.0017915 0)
(1.00275 0.000958504 0)
(1.00207 0.00302208 0)
(1.00093 0.00209555 0)
(0.998926 0.00533341 0)
(0.997494 0.007354 0)
(0.999905 0.00035027 0)
(1.00128 -0.00187367 0)
(0.998551 0.000545554 0)
(0.999496 -0.00147335 0)
(0.999639 0.0032483 0)
(1.00009 -0.0015333 0)
(1.00071 0.00580454 0)
(1.00401 -0.00317255 0)
(1.00238 0.00617557 0)
(1.00606 -0.00258776 0)
(1.00394 0.00422593 0)
(1.0056 -0.000720491 0)
(1.00511 0.00239909 0)
(1.00496 0.000722328 0)
(1.00485 0.00168852 0)
(1.00381 0.00117353 0)
(1.00326 0.00290399 0)
(1.0022 0.00251927 0)
(1.00041 0.0053312 0)
(0.999138 0.00777767 0)
(1.00042 0.000343412 0)
(1.00076 -0.0018673 0)
(0.998849 0.000555404 0)
(0.999492 -0.00146179 0)
(1.00045 0.00321121 0)
(1.00028 -0.00151597 0)
(1.00146 0.00567298 0)
(1.00389 -0.00309649 0)
(1.00297 0.00599874 0)
(1.00601 -0.00245619 0)
(1.00445 0.00404536 0)
(1.00586 -0.000561008 0)
(1.00569 0.00222693 0)
(1.00546 0.000887234 0)
(1.0055 0.00155385 0)
(1.00451 0.00140515 0)
(1.00405 0.0027963 0)
(1.00307 0.00290294 0)
(1.00148 0.00539469 0)
(1.00035 0.00808803 0)
(1.00069 0.000337393 0)
(1.00043 -0.00186036 0)
(0.999001 0.000561653 0)
(0.999488 -0.00145522 0)
(1.001 0.00316755 0)
(1.00049 -0.00149575 0)
(1.00199 0.00553688 0)
(1.00387 -0.00300797 0)
(1.00336 0.00580419 0)
(1.00598 -0.0023037 0)
(1.00476 0.00383427 0)
(1.00599 -0.000377081 0)
(1.00603 0.00202284 0)
(1.00574 0.00107049 0)
(1.00589 0.00140111 0)
(1.00494 0.00163611 0)
(1.00455 0.00272274 0)
(1.00364 0.0032254 0)
(1.00221 0.00552369 0)
(1.00121 0.00830922 0)
(1.00084 0.000332114 0)
(1.00022 -0.00185301 0)
(0.999081 0.000565616 0)
(0.999492 -0.00145191 0)
(1.00134 0.00311667 0)
(1.00065 -0.00147216 0)
(1.00232 0.00539326 0)
(1.0039 -0.0029052 0)
(1.00359 0.00559064 0)
(1.00596 -0.00212869 0)
(1.00494 0.00359418 0)
(1.00603 -0.000169361 0)
(1.00622 0.00179355 0)
(1.00587 0.00126632 0)
(1.00609 0.00124567 0)
(1.00519 0.0018469 0)
(1.00484 0.0027013 0)
(1.00402 0.00348294 0)
(1.00274 0.00570297 0)
(1.00183 0.00846877 0)
(1.00093 0.000327201 0)
(1.0001 -0.00184523 0)
(0.999131 0.000568006 0)
(0.999506 -0.00144972 0)
(1.00154 0.00305804 0)
(1.00078 -0.00144386 0)
(1.0025 0.00523912 0)
(1.00394 -0.00278695 0)
(1.00372 0.00535624 0)
(1.00592 -0.00192882 0)
(1.00505 0.00332359 0)
(1.00602 6.04313e-05 0)
(1.00634 0.001542 0)
(1.00591 0.00146889 0)
(1.00621 0.00110693 0)
(1.00534 0.00202197 0)
(1.00503 0.00274167 0)
(1.00428 0.0036894 0)
(1.00314 0.00591032 0)
(1.00231 0.00859538 0)
(1.00098 0.000322259 0)
(1.00003 -0.00183669 0)
(0.999173 0.000568624 0)
(0.999525 -0.00144663 0)
(1.00166 0.0029914 0)
(1.00087 -0.00140935 0)
(1.0026 0.00507251 0)
(1.00396 -0.00265273 0)
(1.0038 0.00509979 0)
(1.00587 -0.00170482 0)
(1.00513 0.00302661 0)
(1.00597 0.000305726 0)
(1.00641 0.00127895 0)
(1.00592 0.00166496 0)
(1.00627 0.0010021 0)
(1.00545 0.00214526 0)
(1.00517 0.00284145 0)
(1.00449 0.00385999 0)
(1.00348 0.00611829 0)
(1.00271 0.00871098 0)
(1.00102 0.000317005 0)
(0.99998 -0.00182718 0)
(0.999215 0.000567665 0)
(0.999547 -0.00144232 0)
(1.00174 0.00291597 0)
(1.00093 -0.00136779 0)
(1.00264 0.00489194 0)
(1.00397 -0.00250178 0)
(1.00385 0.00482034 0)
(1.00581 -0.00145873 0)
(1.0052 0.00270809 0)
(1.00591 0.000561397 0)
(1.00648 0.00101835 0)
(1.0059 0.00183527 0)
(1.00632 0.000945383 0)
(1.00554 0.00221323 0)
(1.00528 0.00299138 0)
(1.00468 0.00401038 0)
(1.00379 0.00630277 0)
(1.00306 0.00882434 0)
(1.00105 0.000311242 0)
(0.999945 -0.00181617 0)
(0.999261 0.000564435 0)
(0.999571 -0.00143523 0)
(1.00179 0.00283034 0)
(1.00098 -0.00131722 0)
(1.00266 0.00469527 0)
(1.00397 -0.00233261 0)
(1.0039 0.00451743 0)
(1.00574 -0.0011925 0)
(1.00527 0.00237089 0)
(1.00583 0.000820417 0)
(1.00654 0.000774574 0)
(1.00588 0.00196256 0)
(1.00635 0.000947385 0)
(1.00563 0.00223688 0)
(1.00539 0.0031788 0)
(1.00487 0.00416095 0)
(1.0041 0.00645272 0)
(1.0034 0.00893464 0)
(1.00107 0.000304647 0)
(0.999917 -0.00180238 0)
(0.999308 0.000556947 0)
(0.999598 -0.00142255 0)
(1.00184 0.00273304 0)
(1.00102 -0.00125507 0)
(1.00267 0.00447997 0)
(1.00396 -0.00214349 0)
(1.00394 0.00419156 0)
(1.00566 -0.000911485 0)
(1.00534 0.00202615 0)
(1.00576 0.00106538 0)
(1.00659 0.000562094 0)
(1.00587 0.00203552 0)
(1.00637 0.00100771 0)
(1.00572 0.00222678 0)
(1.00551 0.00338104 0)
(1.00505 0.00433074 0)
(1.00442 0.00657062 0)
(1.00373 0.00903839 0)
(1.00109 0.000296934 0)
(0.999897 -0.00178489 0)
(0.999355 0.000544192 0)
(0.999629 -0.00140328 0)
(1.00188 0.00262234 0)
(1.00105 -0.0011802 0)
(1.00267 0.0042454 0)
(1.00395 -0.00193661 0)
(1.00398 0.00384686 0)
(1.00558 -0.00062387 0)
(1.00541 0.00168485 0)
(1.00568 0.00128319 0)
(1.00663 0.000392134 0)
(1.00587 0.00204789 0)
(1.00639 0.00111549 0)
(1.00583 0.00219732 0)
(1.00563 0.00357307 0)
(1.00523 0.0045334 0)
(1.00474 0.00667213 0)
(1.00405 0.0091348 0)
(1.0011 0.000288017 0)
(0.999885 -0.00176311 0)
(0.999396 0.000525398 0)
(0.999667 -0.0013771 0)
(1.00192 0.00249569 0)
(1.00109 -0.00109274 0)
(1.00266 0.00399342 0)
(1.00393 -0.00171716 0)
(1.00402 0.00349123 0)
(1.0055 -0.00033955 0)
(1.00548 0.00135638 0)
(1.00561 0.00146603 0)
(1.00667 0.000272674 0)
(1.00589 0.00200414 0)
(1.0064 0.00125611 0)
(1.00595 0.00216938 0)
(1.00578 0.00373559 0)
(1.00542 0.00476947 0)
(1.00506 0.00677589 0)
(1.00438 0.0092243 0)
(1.0011 0.000277678 0)
(0.999885 -0.00173583 0)
(0.999429 0.000497607 0)
(0.999714 -0.0013422 0)
(1.00194 0.00235296 0)
(1.00114 -0.000993634 0)
(1.00265 0.00372508 0)
(1.00392 -0.00148836 0)
(1.00406 0.00313053 0)
(1.00542 -6.66092e-05 0)
(1.00555 0.00105105 0)
(1.00555 0.00160456 0)
(1.00669 0.000201044 0)
(1.00592 0.00191521 0)
(1.00641 0.00140492 0)
(1.00608 0.0021556 0)
(1.00594 0.00385367 0)
(1.00561 0.00502425 0)
(1.00538 0.00689245 0)
(1.00472 0.00930837 0)
(1.00108 0.000264867 0)
(0.999898 -0.00170069 0)
(0.99945 0.00045615 0)
(0.999771 -0.00129476 0)
(1.00196 0.00219341 0)
(1.00119 -0.000880799 0)
(1.00264 0.00343879 0)
(1.00391 -0.00125177 0)
(1.00409 0.00276679 0)
(1.00534 0.000187588 0)
(1.0056 0.000779634 0)
(1.00551 0.00168915 0)
(1.0067 0.000172322 0)
(1.00597 0.00179399 0)
(1.00642 0.0015425 0)
(1.00622 0.00215402 0)
(1.00613 0.00391539 0)
(1.00582 0.00527071 0)
(1.0057 0.00702553 0)
(1.00507 0.00940133 0)
(1.00104 0.00025127 0)
(0.999926 -0.00165926 0)
(0.999458 0.000404971 0)
(0.999841 -0.00124143 0)
(1.00198 0.00202122 0)
(1.00125 -0.000763825 0)
(1.00262 0.00315285 0)
(1.0039 -0.0010278 0)
(1.00412 0.00243018 0)
(1.00527 0.000394286 0)
(1.00565 0.000569777 0)
(1.00548 0.00169865 0)
(1.00668 0.000201437 0)
(1.00603 0.00163279 0)
(1.00643 0.00168494 0)
(1.00636 0.00213931 0)
(1.00633 0.00391477 0)
(1.00605 0.005413 0)
(1.00601 0.007147 0)
(1.00543 0.00949401 0)
(1.00099 0.000235151 0)
(0.999968 -0.00160591 0)
(0.999452 0.000338157 0)
(0.999921 -0.00117573 0)
(1.00198 0.00182927 0)
(1.00131 -0.000638048 0)
(1.00259 0.00286339 0)
(1.0039 -0.000814358 0)
(1.00414 0.00211705 0)
(1.00521 0.000564982 0)
(1.00567 0.000397154 0)
(1.00546 0.00166632 0)
(1.00666 0.000250169 0)
(1.00611 0.00146519 0)
(1.00644 0.00180416 0)
(1.0065 0.00214071 0)
(1.00655 0.00384063 0)
(1.0063 0.00544927 0)
(1.00634 0.00714838 0)
(1.00582 0.00940289 0)
(1.00092 0.000216723 0)
(1.00002 -0.00154183 0)
(0.999436 0.000258183 0)
(1.00001 -0.00110308 0)
(1.00197 0.00162951 0)
(1.00139 -0.000513399 0)
(1.00255 0.00258243 0)
(1.00391 -0.000622208 0)
(1.00416 0.00182977 0)
(1.00515 0.000701693 0)
(1.00569 0.000252347 0)
(1.00545 0.00161518 0)
(1.00661 0.000301778 0)
(1.0062 0.00130318 0)
(1.00645 0.00188406 0)
(1.00663 0.00218945 0)
(1.00677 0.00380893 0)
(1.00657 0.00552368 0)
(1.00666 0.00719502 0)
(1.00623 0.00936456 0)
(1.00085 0.000197272 0)
(1.00008 -0.00146679 0)
(0.999411 0.000168163 0)
(1.0001 -0.00102765 0)
(1.00195 0.00142844 0)
(1.00146 -0.000402895 0)
(1.00251 0.00233 0)
(1.00391 -0.000471034 0)
(1.00417 0.00159172 0)
(1.0051 0.000788473 0)
(1.00569 0.000149332 0)
(1.00546 0.00153196 0)
(1.00656 0.000399323 0)
(1.00629 0.00115284 0)
(1.00648 0.00198407 0)
(1.00677 0.00233047 0)
(1.007 0.00388207 0)
(1.00686 0.0056517 0)
(1.00699 0.00733613 0)
(1.00666 0.00936358 0)
(1.00077 0.000173719 0)
(1.00014 -0.00137834 0)
(0.999383 6.73584e-05 0)
(1.0002 -0.000947152 0)
(1.00194 0.00122211 0)
(1.00154 -0.000303782 0)
(1.00246 0.00209191 0)
(1.00392 -0.000333829 0)
(1.00417 0.00136613 0)
(1.00505 0.000861241 0)
(1.00568 6.08422e-05 0)
(1.00547 0.00143643 0)
(1.0065 0.000556229 0)
(1.00639 0.00110819 0)
(1.00653 0.00213433 0)
(1.00692 0.00258892 0)
(1.00724 0.00400162 0)
(1.00717 0.0058041 0)
(1.00731 0.00748379 0)
(1.00708 0.00937889 0)
(1.00069 0.000151062 0)
(1.00019 -0.00128652 0)
(0.999357 -3.23715e-05 0)
(1.00028 -0.000882531 0)
(1.00193 0.00103417 0)
(1.00161 -0.000236928 0)
(1.00242 0.00188325 0)
(1.00391 -0.000226102 0)
(1.00417 0.00115988 0)
(1.00499 0.000926582 0)
(1.00567 1.0988e-05 0)
(1.0055 0.00135838 0)
(1.00644 0.00076445 0)
(1.0065 0.00116894 0)
(1.00661 0.00228399 0)
(1.00706 0.00286013 0)
(1.00748 0.00413476 0)
(1.00749 0.00592653 0)
(1.00764 0.00758999 0)
(1.00749 0.00935891 0)
(1.00061 0.000126885 0)
(1.00024 -0.00118702 0)
(0.999335 -0.000133991 0)
(1.00036 -0.000828829 0)
(1.00192 0.000859502 0)
(1.00168 -0.000195747 0)
(1.00238 0.00169585 0)
(1.0039 -0.000137631 0)
(1.00418 0.000973181 0)
(1.00494 0.000991508 0)
(1.00565 5.08948e-05 0)
(1.00554 0.00132723 0)
(1.00639 0.00100631 0)
(1.00659 0.0012764 0)
(1.0067 0.00239923 0)
(1.0072 0.00308486 0)
(1.00771 0.00424958 0)
(1.00781 0.00598391 0)
(1.00797 0.00763455 0)
(1.00788 0.00928618 0)
(1.00055 0.000103169 0)
(1.00027 -0.00108802 0)
(0.999319 -0.00022895 0)
(1.00043 -0.000800182 0)
(1.00191 0.000702671 0)
(1.00173 -0.000179689 0)
(1.00235 0.00151408 0)
(1.00388 -4.07289e-05 0)
(1.00419 0.000797728 0)
(1.00489 0.00107524 0)
(1.00563 0.000168237 0)
(1.00558 0.00132188 0)
(1.00635 0.00123715 0)
(1.00668 0.00140986 0)
(1.00681 0.00248655 0)
(1.00735 0.00326773 0)
(1.00795 0.00433779 0)
(1.00814 0.00599273 0)
(1.0083 0.00762701 0)
(1.00825 0.00918484 0)
(1.0005 8.08921e-05 0)
(1.00029 -0.000991988 0)
(0.999307 -0.000304484 0)
(1.00049 -0.000810264 0)
(1.00191 0.000569015 0)
(1.00178 -0.000189998 0)
(1.00232 0.00134641 0)
(1.00385 5.25288e-05 0)
(1.00421 0.000669638 0)
(1.00484 0.00117636 0)
(1.0056 0.000324555 0)
(1.00563 0.00131509 0)
(1.00632 0.00142146 0)
(1.00675 0.00154419 0)
(1.00693 0.002546 0)
(1.0075 0.00340291 0)
(1.00818 0.00439976 0)
(1.00847 0.00597003 0)
(1.00864 0.00758458 0)
(1.00861 0.00907471 0)
(1.00045 6.17562e-05 0)
(1.00029 -0.000905299 0)
(0.999298 -0.000352302 0)
(1.00054 -0.000846868 0)
(1.00192 0.000432085 0)
(1.00182 -0.000213252 0)
(1.0023 0.0011775 0)
(1.00381 0.000177243 0)
(1.00424 0.000631919 0)
(1.00481 0.00127656 0)
(1.00557 0.000513692 0)
(1.00568 0.00131206 0)
(1.00631 0.00156454 0)
(1.00681 0.00167917 0)
(1.00705 0.0026037 0)
(1.00765 0.00351476 0)
(1.0084 0.00446376 0)
(1.0088 0.00594025 0)
(1.00899 0.00752015 0)
(1.00895 0.0089554 0)
(1.00041 4.44812e-05 0)
(1.00029 -0.000832104 0)
(0.999288 -0.000365131 0)
(1.00057 -0.000911053 0)
(1.00193 0.000299664 0)
(1.00185 -0.000239014 0)
(1.0023 0.00100478 0)
(1.00377 0.000342573 0)
(1.00426 0.000661308 0)
(1.00477 0.00136052 0)
(1.00554 0.000709088 0)
(1.00572 0.00132225 0)
(1.0063 0.00167486 0)
(1.00687 0.00181695 0)
(1.00719 0.00267605 0)
(1.00781 0.00362156 0)
(1.00863 0.00453746 0)
(1.00913 0.00590371 0)
(1.00934 0.00742541 0)
(1.00929 0.00881096 0)
(1.00038 3.25004e-05 0)
(1.00029 -0.000780799 0)
(0.999273 -0.000343727 0)
(1.0006 -0.000987983 0)
(1.00195 0.000167787 0)
(1.00187 -0.00023423 0)
(1.0023 0.000883902 0)
(1.00374 0.000506155 0)
(1.00428 0.000709687 0)
(1.00475 0.0014084 0)
(1.0055 0.000883562 0)
(1.00575 0.00134943 0)
(1.0063 0.00175939 0)
(1.00692 0.00194392 0)
(1.00732 0.00274978 0)
(1.00797 0.00371497 0)
(1.00885 0.00460597 0)
(1.00945 0.00584892 0)
(1.0097 0.00728926 0)
(1.00963 0.00862791 0)
(1.00035 2.65878e-05 0)
(1.00028 -0.000750045 0)
(0.999256 -0.00029935 0)
(1.00062 -0.00104397 0)
(1.00197 3.04548e-05 0)
(1.0019 -0.000185431 0)
(1.00232 0.000803002 0)
(1.0037 0.000643807 0)
(1.0043 0.000767364 0)
(1.00472 0.00141831 0)
(1.00545 0.00102926 0)
(1.00578 0.00139135 0)
(1.00632 0.00183248 0)
(1.00698 0.00205636 0)
(1.00746 0.00281455 0)
(1.00814 0.00379055 0)
(1.00906 0.0046662 0)
(1.00976 0.00578578 0)
(1.01005 0.0071232 0)
(1.00996 0.00841026 0)
(1.00031 2.37891e-05 0)
(1.00027 -0.000738123 0)
(0.999236 -0.000226067 0)
(1.00062 -0.00106847 0)
(1.00199 -8.91754e-05 0)
(1.00192 -0.000121511 0)
(1.00233 0.000727955 0)
(1.00367 0.00074441 0)
(1.00431 0.000833412 0)
(1.0047 0.00141743 0)
(1.00541 0.00115826 0)
(1.0058 0.00145655 0)
(1.00634 0.00191555 0)
(1.00704 0.00217042 0)
(1.0076 0.00287465 0)
(1.00832 0.00385043 0)
(1.00927 0.00472059 0)
(1.01004 0.00573073 0)
(1.01039 0.00694831 0)
(1.0103 0.00816878 0)
(1.00028 2.7712e-05 0)
(1.00026 -0.000750295 0)
(0.999216 -0.000138834 0)
(1.00062 -0.00104967 0)
(1.00203 -0.000208547 0)
(1.00194 -5.40858e-05 0)
(1.00235 0.000673116 0)
(1.00365 0.000819495 0)
(1.00431 0.000914782 0)
(1.00468 0.00142906 0)
(1.00538 0.00127224 0)
(1.00582 0.00153694 0)
(1.00636 0.00200256 0)
(1.00709 0.00228342 0)
(1.00775 0.00292295 0)
(1.0085 0.00388377 0)
(1.00948 0.00475789 0)
(1.01031 0.00568416 0)
(1.01073 0.00677791 0)
(1.01064 0.00791364 0)
(1.00025 3.70223e-05 0)
(1.00025 -0.000786262 0)
(0.999199 -4.72637e-05 0)
(1.00061 -0.000985934 0)
(1.00206 -0.00032367 0)
(1.00197 1.57202e-05 0)
(1.00237 0.000648853 0)
(1.00364 0.000873159 0)
(1.00431 0.00100545 0)
(1.00466 0.00145772 0)
(1.00534 0.00136781 0)
(1.00584 0.00161778 0)
(1.00639 0.00208383 0)
(1.00715 0.00238612 0)
(1.00789 0.00295602 0)
(1.00869 0.00388334 0)
(1.00968 0.00476576 0)
(1.01057 0.00563639 0)
(1.01104 0.00661568 0)
(1.01096 0.00765304 0)
(1.00022 5.17271e-05 0)
(1.00026 -0.000837828 0)
(0.999189 4.18624e-05 0)
(1.00059 -0.00087987 0)
(1.0021 -0.000429135 0)
(1.00201 8.992e-05 0)
(1.00239 0.000662669 0)
(1.00363 0.000912891 0)
(1.00431 0.00109393 0)
(1.00465 0.00150086 0)
(1.00531 0.00144891 0)
(1.00586 0.00169336 0)
(1.00643 0.00216722 0)
(1.0072 0.00249058 0)
(1.00803 0.00299298 0)
(1.00889 0.0038634 0)
(1.0099 0.00474463 0)
(1.01081 0.0055784 0)
(1.01133 0.00645701 0)
(1.01128 0.00738833 0)
(1.00019 6.78811e-05 0)
(1.00027 -0.000890553 0)
(0.999189 0.000115653 0)
(1.00056 -0.000740268 0)
(1.00214 -0.000521312 0)
(1.00206 0.000156459 0)
(1.00241 0.000712486 0)
(1.00362 0.000950808 0)
(1.00432 0.0011785 0)
(1.00463 0.00155923 0)
(1.00529 0.00152276 0)
(1.00589 0.0017522 0)
(1.00647 0.002242 0)
(1.00726 0.00259521 0)
(1.00815 0.00303781 0)
(1.00909 0.00383032 0)
(1.01012 0.00469232 0)
(1.01105 0.00550049 0)
(1.01161 0.00629606 0)
(1.01157 0.00712279 0)
(1.00016 7.97777e-05 0)
(1.00028 -0.000946701 0)
(0.999202 0.000144602 0)
(1.00052 -0.000573965 0)
(1.00218 -0.000558681 0)
(1.00212 0.000236261 0)
(1.00243 0.000776992 0)
(1.00362 0.000967898 0)
(1.00433 0.00123651 0)
(1.00462 0.0016263 0)
(1.00526 0.00160472 0)
(1.00592 0.00180063 0)
(1.00652 0.00230129 0)
(1.00731 0.00269539 0)
(1.00827 0.00308865 0)
(1.00929 0.00378646 0)
(1.01034 0.00460745 0)
(1.01129 0.0053949 0)
(1.01187 0.00612845 0)
(1.01185 0.00686145 0)
(1.00013 0.000105482 0)
(1.0003 -0.00101993 0)
(0.999234 0.000140464 0)
(1.00048 -0.000453275 0)
(1.00221 -0.000508774 0)
(1.00219 0.000389076 0)
(1.00245 0.000902959 0)
(1.00362 0.000991199 0)
(1.00435 0.00126477 0)
(1.00461 0.00168283 0)
(1.00524 0.00168478 0)
(1.00596 0.00183222 0)
(1.00659 0.00232798 0)
(1.00737 0.00277276 0)
(1.00838 0.00313643 0)
(1.00948 0.00373276 0)
(1.01057 0.00448953 0)
(1.01153 0.00525176 0)
(1.01212 0.00594126 0)
(1.0121 0.00659636 0)
(1.00011 0.000113876 0)
(1.00032 -0.00109585 0)
(0.999279 -7.26314e-06 0)
(1.00046 -0.000317758 0)
(1.00227 -0.000347509 0)
(1.00227 0.000621459 0)
(1.00246 0.00111646 0)
(1.00361 0.00107935 0)
(1.00437 0.00131176 0)
(1.00461 0.00176031 0)
(1.00521 0.00179214 0)
(1.00599 0.00188003 0)
(1.00667 0.00234396 0)
(1.00745 0.00283537 0)
(1.00848 0.00319414 0)
(1.00965 0.0036939 0)
(1.0108 0.0043636 0)
(1.01177 0.00508477 0)
(1.01236 0.00573909 0)
(1.01234 0.00633323 0)
(1.00008 0.000145047 0)
(1.00034 -0.00124277 0)
(0.999342 -5.56594e-05 0)
(1.00047 -3.74218e-05 0)
(1.00235 -0.000197672 0)
(1.00238 0.000769045 0)
(1.00248 0.00130161 0)
(1.00361 0.00117922 0)
(1.00441 0.00135523 0)
(1.00463 0.00184189 0)
(1.00519 0.00192364 0)
(1.00602 0.00195703 0)
(1.00676 0.00236184 0)
(1.00754 0.00288201 0)
(1.00857 0.00325685 0)
(1.0098 0.00367935 0)
(1.01101 0.00424888 0)
(1.01201 0.0049092 0)
(1.0126 0.00552903 0)
(1.01257 0.0060791 0)
(1.00006 0.000192982 0)
(1.00037 -0.00120792 0)
(0.999449 1.82332e-05 0)
(1.00048 0.000116149 0)
(1.00241 -0.000196639 0)
(1.0025 0.000755447 0)
(1.00251 0.00141523 0)
(1.0036 0.0012667 0)
(1.00446 0.00136933 0)
(1.00467 0.0018887 0)
(1.00518 0.00203821 0)
(1.00604 0.00203747 0)
(1.00686 0.00235941 0)
(1.00765 0.00287693 0)
(1.00868 0.00327437 0)
(1.00994 0.00364352 0)
(1.01122 0.00410946 0)
(1.01225 0.00468736 0)
(1.01284 0.00526149 0)
(1.01279 0.00577606 0)
(1.00004 0.000147542 0)
(1.00039 -0.000944423 0)
(0.999537 1.95861e-05 0)
(1.00047 0.000142182 0)
(1.00246 -0.00023146 0)
(1.00263 0.000676961 0)
(1.00254 0.00146654 0)
(1.00357 0.00132305 0)
(1.00449 0.00132317 0)
(1.00472 0.00184217 0)
(1.00516 0.00207558 0)
(1.00604 0.00207158 0)
(1.00693 0.00230814 0)
(1.00776 0.00280194 0)
(1.00877 0.00323244 0)
(1.01005 0.0035826 0)
(1.01138 0.00396412 0)
(1.01246 0.00445209 0)
(1.01307 0.00496826 0)
(1.01301 0.00544782 0)
(1.00001 0.000209198 0)
(1.00041 -0.000973491 0)
(0.999623 -1.22747e-05 0)
(1.00046 0.000418104 0)
(1.00249 -5.82164e-05 0)
(1.00275 0.000723511 0)
(1.00257 0.00164072 0)
(1.00351 0.00154593 0)
(1.00449 0.00144221 0)
(1.00476 0.00191512 0)
(1.00514 0.0022244 0)
(1.00602 0.00222009 0)
(1.00699 0.00234773 0)
(1.00786 0.00277203 0)
(1.00887 0.0032115 0)
(1.01015 0.00355013 0)
(1.01151 0.0038596 0)
(1.01264 0.00425157 0)
(1.01327 0.00469303 0)
(1.0132 0.00512741 0)
(0.999999 0.000256818 0)
(1.00043 -0.0010488 0)
(0.999765 -4.32579e-05 0)
(1.0005 0.000801642 0)
(1.00253 0.000222148 0)
(1.00291 0.000801975 0)
(1.00265 0.00180208 0)
(1.00348 0.00178341 0)
(1.00451 0.00157731 0)
(1.00483 0.00197529 0)
(1.00516 0.00234682 0)
(1.006 0.00236367 0)
(1.00703 0.00239902 0)
(1.00798 0.00273252 0)
(1.00899 0.00315992 0)
(1.01025 0.00349699 0)
(1.01163 0.00375579 0)
(1.0128 0.00406117 0)
(1.01347 0.00442071 0)
(1.01339 0.0048008 0)
(0.999981 0.000227385 0)
(1.00045 -0.00081042 0)
(0.999927 2.34541e-06 0)
(1.00054 0.000916202 0)
(1.00253 0.000347471 0)
(1.00304 0.000760276 0)
(1.00274 0.00179816 0)
(1.00343 0.00189257 0)
(1.0045 0.00161734 0)
(1.0049 0.00192248 0)
(1.00519 0.00234238 0)
(1.00597 0.00241027 0)
(1.00705 0.0023954 0)
(1.00807 0.00263992 0)
(1.00911 0.003028 0)
(1.01035 0.00336609 0)
(1.01172 0.00359556 0)
(1.01293 0.00383125 0)
(1.01363 0.00410895 0)
(1.01357 0.00442691 0)
(0.99997 0.000254085 0)
(1.00046 -0.000548314 0)
(1.00005 3.33775e-05 0)
(1.00057 0.000956829 0)
(1.00252 0.000493915 0)
(1.00317 0.00076291 0)
(1.00284 0.00181512 0)
(1.00339 0.00205308 0)
(1.00445 0.00174919 0)
(1.00495 0.00193576 0)
(1.00521 0.0023599 0)
(1.00593 0.00248495 0)
(1.00703 0.00243084 0)
(1.00813 0.00257 0)
(1.0092 0.00287461 0)
(1.01042 0.00318813 0)
(1.01178 0.00339452 0)
(1.01301 0.00357615 0)
(1.01375 0.00377939 0)
(1.0137 0.00403261 0)
(0.999961 0.000254996 0)
(1.00045 -0.000404855 0)
(1.00018 7.92487e-05 0)
(1.00062 0.00110754 0)
(1.00249 0.000743611 0)
(1.00327 0.000842222 0)
(1.00295 0.00186292 0)
(1.00334 0.00223917 0)
(1.00438 0.0019286 0)
(1.00497 0.00197665 0)
(1.00524 0.00236515 0)
(1.00589 0.00255963 0)
(1.00697 0.00249905 0)
(1.00814 0.00253552 0)
(1.00926 0.00274264 0)
(1.01049 0.00301051 0)
(1.01182 0.00319776 0)
(1.01305 0.00334263 0)
(1.01382 0.00348509 0)
(1.0138 0.00367475 0)
(0.999955 0.000302726 0)
(1.00045 -0.000342988 0)
(1.00031 0.000146709 0)
(1.00068 0.00124874 0)
(1.00245 0.0010012 0)
(1.00336 0.000961039 0)
(1.00308 0.00192449 0)
(1.00331 0.00243585 0)
(1.00429 0.00216165 0)
(1.00497 0.002077 0)
(1.00528 0.00239332 0)
(1.00586 0.00263325 0)
(1.0069 0.00258473 0)
(1.00811 0.00252497 0)
(1.00929 0.00261763 0)
(1.01053 0.00281085 0)
(1.01185 0.00296327 0)
(1.01307 0.00307336 0)
(1.01386 0.0031623 0)
(1.01386 0.00328872 0)
(0.999952 0.000312943 0)
(1.00045 -0.000157393 0)
(1.00045 0.000231171 0)
(1.00076 0.00139543 0)
(1.00241 0.00129512 0)
(1.00344 0.00113878 0)
(1.00322 0.00198482 0)
(1.00331 0.00259083 0)
(1.00419 0.00238348 0)
(1.00494 0.00218904 0)
(1.00531 0.00239779 0)
(1.00584 0.00264086 0)
(1.00682 0.00261967 0)
(1.00804 0.00250213 0)
(1.00928 0.00249023 0)
(1.01055 0.00259935 0)
(1.01185 0.00270627 0)
(1.01307 0.00278226 0)
(1.01386 0.00282793 0)
(1.01389 0.00289843 0)
(0.999951 0.000261543 0)
(1.00043 0.000129043 0)
(1.00057 0.00038156 0)
(1.00085 0.00152564 0)
(1.00236 0.00157684 0)
(1.00348 0.0013445 0)
(1.00336 0.00202755 0)
(1.00332 0.00269931 0)
(1.00407 0.00259525 0)
(1.00486 0.00233285 0)
(1.00531 0.00241866 0)
(1.00581 0.00262578 0)
(1.00671 0.00262866 0)
(1.00793 0.00248616 0)
(1.00921 0.00238136 0)
(1.01052 0.00239358 0)
(1.01183 0.00243165 0)
(1.01302 0.00245728 0)
(1.01382 0.00245565 0)
(1.01386 0.00247305 0)
(0.999953 0.000370456 0)
(1.00042 0.000235403 0)
(1.00067 0.000425935 0)
(1.00094 0.00151056 0)
(1.00231 0.00173764 0)
(1.00348 0.00151095 0)
(1.00347 0.002044 0)
(1.00335 0.0027545 0)
(1.00395 0.00277693 0)
(1.00475 0.00249118 0)
(1.00526 0.00244819 0)
(1.00576 0.00258804 0)
(1.0066 0.00258931 0)
(1.00777 0.00243436 0)
(1.00908 0.00224942 0)
(1.01042 0.00215984 0)
(1.01174 0.00211002 0)
(1.01293 0.00207361 0)
(1.01373 0.00201929 0)
(1.01378 0.00198768 0)
(0.999958 0.000277308 0)
(1.00037 0.000578806 0)
(1.00074 0.000649341 0)
(1.00104 0.00165647 0)
(1.00227 0.00204908 0)
(1.00345 0.00183139 0)
(1.00357 0.00220225 0)
(1.00339 0.00288093 0)
(1.00383 0.00300425 0)
(1.00459 0.00272534 0)
(1.00517 0.00256118 0)
(1.00569 0.00260022 0)
(1.00646 0.00257245 0)
(1.00758 0.00239644 0)
(1.00889 0.0021469 0)
(1.01026 0.00195465 0)
(1.0116 0.00180682 0)
(1.01279 0.00169553 0)
(1.01359 0.00158375 0)
(1.01365 0.00150045 0)
(0.999964 0.000331513 0)
(1.00037 0.000627758 0)
(1.00077 0.000806462 0)
(1.00112 0.001805 0)
(1.00222 0.00232938 0)
(1.00338 0.00214718 0)
(1.00361 0.00238086 0)
(1.00341 0.00300021 0)
(1.0037 0.00321069 0)
(1.00439 0.00296492 0)
(1.00501 0.00271628 0)
(1.00555 0.00263619 0)
(1.00628 0.00255173 0)
(1.00734 0.00234286 0)
(1.00862 0.00203483 0)
(1.01 0.00174585 0)
(1.01136 0.00149537 0)
(1.01256 0.00129737 0)
(1.01337 0.00112103 0)
(1.01345 0.000983952 0)
(0.99997 0.00041488 0)
(1.00031 0.000624215 0)
(1.00086 0.000963836 0)
(1.00124 0.00195535 0)
(1.0022 0.00259595 0)
(1.00332 0.00249688 0)
(1.00365 0.00262435 0)
(1.00346 0.00315521 0)
(1.00361 0.00342247 0)
(1.00419 0.00322499 0)
(1.00482 0.00291327 0)
(1.00539 0.00272113 0)
(1.00609 0.00254964 0)
(1.00708 0.00229051 0)
(1.00832 0.00192132 0)
(1.00969 0.0015375 0)
(1.01106 0.00118244 0)
(1.01228 0.00088605 0)
(1.01311 0.000633022 0)
(1.01322 0.000433986 0)
(0.999976 0.000353081 0)
(1.00031 0.000962989 0)
(1.00091 0.0012827 0)
(1.00134 0.00214763 0)
(1.00218 0.002864 0)
(1.00322 0.00286577 0)
(1.00363 0.0029107 0)
(1.00348 0.0033353 0)
(1.00351 0.00362822 0)
(1.00396 0.00348995 0)
(1.00456 0.00314083 0)
(1.00515 0.00283923 0)
(1.00582 0.00256222 0)
(1.00675 0.00222129 0)
(1.00792 0.00177849 0)
(1.00927 0.00129414 0)
(1.01065 0.000829825 0)
(1.0119 0.000423862 0)
(1.01275 8.0165e-05 0)
(1.01289 -0.000193852 0)
(0.999983 0.00040851 0)
(1.00027 0.00117639 0)
(1.00091 0.00152349 0)
(1.00141 0.00228202 0)
(1.00216 0.00303787 0)
(1.0031 0.00316319 0)
(1.00356 0.00318886 0)
(1.00346 0.00353165 0)
(1.0034 0.00384162 0)
(1.00372 0.00376295 0)
(1.00425 0.00340012 0)
(1.00482 0.00300099 0)
(1.00547 0.00260064 0)
(1.00633 0.0021591 0)
(1.00744 0.00162098 0)
(1.00875 0.00103375 0)
(1.01012 0.000446289 0)
(1.01139 -8.2368e-05 0)
(1.01228 -0.00054096 0)
(1.01246 -0.000912924 0)
(0.999988 0.000439249 0)
(1.00025 0.00131597 0)
(1.00088 0.00179399 0)