/*--------------------------------*- C++ -*----------------------------------*\
| =========                 |                                                 |
| \\      /  F ield         | OpenFOAM: The Open Source CFD Toolbox           |
|  \\    /   O peration     | Version:  v2012                                 |
|   \\  /    A nd           | Website:  www.openfoam.com                      |
|    \\/     M anipulation  |                                                 |
\*---------------------------------------------------------------------------*/
FoamFile
{
    version     2.0;
    format      ascii;
    class       volScalarField;
    location    "1.25";
    object      p;
}
// * * * * * * * * * * * * * * * * * * * * * * * * * * * * * * * * * * * * * //

dimensions      [0 2 -2 0 0 0 0];


internalField   nonuniform List<scalar> 
17600
(
5.6886e-11
0.000115496
-0.0005996
-0.0014176
-0.0011879
-0.00167701
-0.00221919
-0.00293786
-0.00349768
-0.00333753
-0.00408638
-0.00393582
-0.00419086
-0.00408644
-0.00411096
-0.0033354
-0.00276447
-0.00113112
0.000850508
0.00476084
4.05175e-07
0.00011482
-0.00059848
-0.00141842
-0.00118693
-0.00168002
-0.00221832
-0.00294126
-0.00349555
-0.00333952
-0.00408171
-0.00394471
-0.004188
-0.00409678
-0.00410548
-0.00336275
-0.0027543
-0.00119451
0.000863519
0.00443922
1.01025e-06
0.000113616
-0.000596669
-0.00142001
-0.00118665
-0.00168454
-0.00221684
-0.00294571
-0.00349188
-0.00334231
-0.00407977
-0.0039548
-0.00418393
-0.00410868
-0.00409863
-0.00338939
-0.00274388
-0.00125852
0.000858977
0.0040063
1.72459e-06
0.000111883
-0.000594814
-0.00142224
-0.00118777
-0.00168929
-0.00221535
-0.00294937
-0.00348708
-0.00334498
-0.00407841
-0.00396533
-0.0041796
-0.00412134
-0.00409182
-0.00341838
-0.0027358
-0.00132471
0.000824883
0.00358736
2.62215e-06
0.000109483
-0.0005928
-0.00142514
-0.00118987
-0.00169422
-0.00221364
-0.00295207
-0.00348139
-0.00334783
-0.00407719
-0.00397688
-0.00417487
-0.00413562
-0.00408481
-0.00345059
-0.00272948
-0.00139555
0.000760655
0.00319062
3.72777e-06
0.000106432
-0.000590457
-0.00142867
-0.00119245
-0.00169931
-0.00221138
-0.00295399
-0.00347513
-0.00335109
-0.00407592
-0.00398953
-0.00416962
-0.00415168
-0.00407769
-0.00348544
-0.00272613
-0.00147133
0.000666826
0.00281754
5.0109e-06
0.000102851
-0.000587777
-0.00143265
-0.00119514
-0.00170446
-0.00220843
-0.00295535
-0.0034685
-0.00335474
-0.00407439
-0.00400321
-0.00416388
-0.00416906
-0.00407095
-0.00352221
-0.00272804
-0.00155129
0.000544099
0.00246383
6.44232e-06
9.88742e-05
-0.000584823
-0.00143693
-0.00119772
-0.00170964
-0.00220486
-0.00295638
-0.00346166
-0.00335876
-0.0040725
-0.00401787
-0.00415779
-0.00418777
-0.00406526
-0.00356018
-0.00273766
-0.00163392
0.000393118
0.00212334
8.02508e-06
9.45975e-05
-0.000581666
-0.0014414
-0.00120018
-0.00171488
-0.00220082
-0.00295722
-0.00345468
-0.00336311
-0.00407028
-0.00403352
-0.00415156
-0.00420756
-0.00406143
-0.00359854
-0.00275718
-0.00171841
0.000215152
0.00178987
9.7842e-06
9.00719e-05
-0.000578368
-0.00144608
-0.00120258
-0.00172019
-0.00219645
-0.00295795
-0.00344763
-0.00336776
-0.0040678
-0.00405003
-0.00414549
-0.004228
-0.0040604
-0.00363649
-0.0027884
-0.00180506
1.26947e-05
0.00145786
1.17492e-05
8.53147e-05
-0.000574968
-0.00145097
-0.001205
-0.00172557
-0.00219185
-0.00295857
-0.00344054
-0.00337265
-0.00406515
-0.00406725
-0.00413994
-0.00424858
-0.00406318
-0.00367331
-0.00283266
-0.00189527
-0.000210437
0.00112291
1.39478e-05
8.03335e-05
-0.000571486
-0.00145609
-0.00120747
-0.00173096
-0.00218711
-0.00295904
-0.00343349
-0.00337768
-0.00406249
-0.0040849
-0.0041354
-0.00426867
-0.00407078
-0.00370871
-0.00289059
-0.0019914
-0.000449547
0.000782308
1.64053e-05
7.51352e-05
-0.000567926
-0.00146145
-0.00120998
-0.00173631
-0.00218231
-0.00295927
-0.00342657
-0.00338272
-0.00406007
-0.00410257
-0.00413249
-0.00428765
-0.00408415
-0.00374334
-0.00296176
-0.00209646
-0.000699997
0.000435058
1.9145e-05
6.97284e-05
-0.00056429
-0.00146703
-0.00121254
-0.00174156
-0.00217756
-0.0029592
-0.00341992
-0.00338756
-0.00405818
-0.00411981
-0.00413171
-0.00430506
-0.00410399
-0.00377841
-0.00304476
-0.00221348
-0.000958317
8.15268e-05
2.21885e-05
6.41234e-05
-0.000560574
-0.00147279
-0.00121515
-0.00174664
-0.00217297
-0.00295865
-0.00341378
-0.00339196
-0.00405713
-0.00413634
-0.00413341
-0.00432107
-0.00413053
-0.00381585
-0.00313784
-0.00234489
-0.00122275
-0.000277025
2.55547e-05
5.83344e-05
-0.000556778
-0.00147876
-0.00121785
-0.00175147
-0.00216868
-0.00295746
-0.00340841
-0.00339564
-0.00405719
-0.00415199
-0.00413788
-0.00433578
-0.00416333
-0.00385799
-0.00323961
-0.00249226
-0.00149286
-0.000638928
2.92561e-05
5.23837e-05
-0.000552896
-0.00148479
-0.00122068
-0.00175592
-0.00216486
-0.00295539
-0.00340407
-0.00339831
-0.0040586
-0.00416656
-0.00414536
-0.00434998
-0.00420131
-0.0039069
-0.00334957
-0.0026561
-0.00176891
-0.00100276
3.32975e-05
4.63044e-05
-0.000548926
-0.00149085
-0.00122373
-0.00175984
-0.00216174
-0.00295219
-0.00340104
-0.00339981
-0.00406152
-0.00418001
-0.0041557
-0.00436503
-0.00424335
-0.00396412
-0.00346804
-0.00283571
-0.00205151
-0.00136764
3.76757e-05
4.0144e-05
-0.000544878
-0.00149687
-0.00122712
-0.00176303
-0.00215957
-0.00294758
-0.00339959
-0.00340006
-0.00406596
-0.00419263
-0.00416814
-0.00438233
-0.00428888
-0.00403086
-0.00359593
-0.00302974
-0.00234117
-0.00173306
4.23747e-05
3.39735e-05
-0.000540784
-0.00150272
-0.001231
-0.00176526
-0.00215861
-0.00294128
-0.00339992
-0.00339906
-0.00407166
-0.00420513
-0.00418155
-0.00440306
-0.00433815
-0.00410799
-0.00373467
-0.00323703
-0.00263794
-0.00209894
4.7361e-05
2.78985e-05
-0.000536682
-0.00150825
-0.00123556
-0.00176629
-0.00215914
-0.00293308
-0.00340211
-0.00339697
-0.00407799
-0.00421854
-0.00419497
-0.00442797
-0.00439186
-0.00419547
-0.00388578
-0.00345724
-0.00294162
-0.00246558
5.25793e-05
2.20729e-05
-0.000532606
-0.0015133
-0.00124105
-0.00176589
-0.00216133
-0.00292283
-0.0034061
-0.00339412
-0.00408414
-0.00423405
-0.00420797
-0.00445751
-0.00445117
-0.0042926
-0.00405035
-0.00369113
-0.00325211
-0.00283348
5.79455e-05
1.6706e-05
-0.00052861
-0.0015177
-0.00124769
-0.00176388
-0.00216527
-0.00290901
-0.00341166
-0.00339112
-0.00408921
-0.00425255
-0.00422072
-0.0044915
-0.0045175
-0.00439865
-0.00422878
-0.00394015
-0.00356984
-0.00320312
6.33372e-05
1.2048e-05
-0.000524769
-0.00152125
-0.0012557
-0.00176014
-0.00217108
-0.00289538
-0.00341882
-0.00338891
-0.00409137
-0.00427439
-0.00423382
-0.00452926
-0.00459235
-0.00451351
-0.0044207
-0.00420569
-0.00389594
-0.00357498
6.86041e-05
8.40609e-06
-0.000521161
-0.00152382
-0.00126524
-0.0017546
-0.00217872
-0.00288078
-0.00342527
-0.0033884
-0.00409014
-0.00429949
-0.00424827
-0.00457017
-0.00467722
-0.00463797
-0.00462475
-0.0044882
-0.00423205
-0.00394953
7.35697e-05
6.17132e-06
-0.000517834
-0.00152531
-0.00127639
-0.0017474
-0.00218783
-0.00286587
-0.00342986
-0.00339027
-0.00408536
-0.00432725
-0.00426531
-0.0046139
-0.00477358
-0.00477394
-0.00483913
-0.0047866
-0.00458007
-0.00432704
7.80065e-05
5.7683e-06
-0.000514778
-0.00152566
-0.00128921
-0.0017389
-0.00219776
-0.0028514
-0.00343229
-0.00339482
-0.00407735
-0.00435702
-0.00428638
-0.00466039
-0.00488275
-0.00492391
-0.0050621
-0.00509824
-0.00494135
-0.00470801
8.16423e-05
7.60186e-06
-0.000511927
-0.00152489
-0.00130347
-0.00172975
-0.00220765
-0.00283795
-0.00343229
-0.00340162
-0.0040672
-0.00438867
-0.00431362
-0.00471105
-0.00500564
-0.0050895
-0.00529143
-0.00541874
-0.00531623
-0.00509475
8.41949e-05
1.20937e-05
-0.000509061
-0.00152291
-0.0013188
-0.00172072
-0.00221685
-0.00282581
-0.00342998
-0.00341029
-0.00405368
-0.00442161
-0.00435043
-0.00476883
-0.00514227
-0.00527027
-0.00552402
-0.00574224
-0.00570307
-0.00549004
8.53427e-05
1.96713e-05
-0.000505747
-0.00151791
-0.00133459
-0.00171261
-0.00222506
-0.00281496
-0.00342592
-0.00342099
-0.00404296
-0.00445585
-0.00440038
-0.0048353
-0.00529002
-0.00546538
-0.00575837
-0.00606306
-0.00609771
-0.00589484
8.47522e-05
3.06427e-05
-0.00050137
-0.00151356
-0.00135014
-0.001706
-0.00223209
-0.00280498
-0.00342121
-0.00343417
-0.00403546
-0.00449895
-0.00446451
-0.00490833
-0.00544389
-0.00567476
-0.00599665
-0.006378
-0.00649454
-0.00630724
8.22451e-05
4.50692e-05
-0.000495111
-0.00151084
-0.00136492
-0.0017011
-0.00223849
-0.00279536
-0.00341701
-0.00345141
-0.00403243
-0.00455035
-0.00454246
-0.00498494
-0.00559848
-0.00589715
-0.006243
-0.00668723
-0.00688782
-0.00672334
7.77757e-05
6.2814e-05
-0.000485856
-0.00151181
-0.0013788
-0.0016976
-0.00224568
-0.00278631
-0.00341405
-0.00347503
-0.00403505
-0.00460753
-0.00463336
-0.00506452
-0.00574925
-0.00612919
-0.00650083
-0.00699357
-0.00727292
-0.0071382
7.11625e-05
8.91588e-05
-0.000472117
-0.00151449
-0.00139226
-0.00169454
-0.00225512
-0.00277868
-0.00341271
-0.00350684
-0.00404389
-0.00466658
-0.00473614
-0.00514965
-0.00589369
-0.00636617
-0.00677146
-0.00729998
-0.00764757
-0.00754716
6.22475e-05
0.000113137
-0.00045232
-0.0015185
-0.00140635
-0.00169113
-0.00226797
-0.00277393
-0.00341323
-0.00354777
-0.00405873
-0.00472358
-0.00484878
-0.00524404
-0.00603193
-0.00660309
-0.00705385
-0.00760915
-0.00801173
-0.00794649
5.12943e-05
0.000136709
-0.000425379
-0.00152264
-0.00142239
-0.00168745
-0.00228517
-0.00277415
-0.00341574
-0.00359741
-0.00407985
-0.00477517
-0.00496794
-0.00535098
-0.00616645
-0.00683586
-0.00734498
-0.00792304
-0.00836686
-0.00833378
3.87729e-05
0.000159246
-0.000390826
-0.00152542
-0.00144142
-0.00168375
-0.00230753
-0.00278183
-0.00341965
-0.00365394
-0.0041086
-0.00482018
-0.00508946
-0.00547214
-0.0063014
-0.00706193
-0.00764023
-0.00824178
-0.00871495
-0.00870816
2.52635e-05
0.000179795
-0.000349215
-0.00152527
-0.00146418
-0.00168036
-0.00233561
-0.00279899
-0.00342494
-0.00371504
-0.00414734
-0.00485989
-0.0052086
-0.0056067
-0.00644147
-0.00728088
-0.0079343
-0.00856312
-0.00905751
-0.00907015
1.15156e-05
0.000197384
-0.000302045
-0.0015208
-0.0014912
-0.001678
-0.00236932
-0.00282685
-0.00342855
-0.00377806
-0.0041981
-0.00489757
-0.00532129
-0.00575158
-0.00659041
-0.00749459
-0.00822263
-0.00888306
-0.00939461
-0.00942077
-1.60249e-06
0.000211176
-0.0002512
-0.00151094
-0.00152255
-0.00167845
-0.00240655
-0.00286658
-0.00343262
-0.00383901
-0.00426126
-0.00493744
-0.00542558
-0.00590271
-0.00674982
-0.00770589
-0.00850269
-0.00919743
-0.00972476
-0.00976049
-1.32616e-05
0.000220457
-0.000198584
-0.0014949
-0.00155816
-0.00167969
-0.0024457
-0.00291956
-0.00343925
-0.00389368
-0.00433501
-0.00498459
-0.00552212
-0.0060553
-0.00691869
-0.00791677
-0.00877412
-0.0095032
-0.0100455
-0.0100885
-2.28534e-05
0.000224007
-0.000146094
-0.00147256
-0.00159842
-0.00168305
-0.00248378
-0.00298586
-0.0034522
-0.00393953
-0.00441562
-0.00504361
-0.00561406
-0.00620477
-0.00709381
-0.00812838
-0.00903812
-0.00979891
-0.0103541
-0.0104028
-2.99203e-05
0.000222715
-9.55596e-05
-0.00144436
-0.00164407
-0.00169027
-0.00251674
-0.00306334
-0.00347586
-0.00397638
-0.00449847
-0.00511677
-0.00570563
-0.00634786
-0.00727054
-0.00834086
-0.00929654
-0.0100846
-0.0106488
-0.0107009
-3.39881e-05
0.000217784
-4.86196e-05
-0.00141102
-0.00169572
-0.00170344
-0.00254224
-0.00314857
-0.00351375
-0.0040062
-0.00457849
-0.00520291
-0.00580103
-0.00648348
-0.00744379
-0.00855276
-0.00955092
-0.0103615
-0.0109289
-0.0109806
-3.46109e-05
0.000208535
-7.00584e-06
-0.00137316
-0.00175248
-0.00172505
-0.00255751
-0.00323664
-0.00356801
-0.00403298
-0.0046511
-0.00529824
-0.00590365
-0.00661291
-0.0076092
-0.00876057
-0.00980133
-0.0106312
-0.0111955
-0.0112409
-3.15434e-05
0.000195207
2.74149e-05
-0.00133162
-0.00181723
-0.00175838
-0.00256306
-0.00332089
-0.0036386
-0.00406197
-0.00471383
-0.00539792
-0.00601519
-0.00673941
-0.00776424
-0.00895925
-0.0100453
-0.0108946
-0.0114506
-0.0114824
-2.47466e-05
0.000178144
5.26339e-05
-0.00128717
-0.00188689
-0.00180713
-0.0025605
-0.0033941
-0.00372271
-0.00409847
-0.00476677
-0.00549659
-0.00613533
-0.00686698
-0.00790869
-0.00914377
-0.0102782
-0.0111506
-0.0116962
-0.0117069
-1.44386e-05
0.000157748
6.68334e-05
-0.00124087
-0.00195918
-0.0018744
-0.00255351
-0.00345053
-0.00381579
-0.00414625
-0.004812
-0.00558927
-0.00626174
-0.00699864
-0.00804408
-0.00931059
-0.0104945
-0.0113961
-0.0119331
-0.0119171
-8.35278e-07
0.000134521
6.81949e-05
-0.00119429
-0.002031
-0.00196186
-0.00254815
-0.00348723
-0.00391116
-0.0042068
-0.00485296
-0.00567206
-0.00638968
-0.00713493
-0.00817283
-0.00945851
-0.0106893
-0.0116266
-0.0121606
-0.0121152
1.57207e-05
0.000109175
5.46857e-05
-0.00114947
-0.00209808
-0.00206904
-0.00255284
-0.00350518
-0.00400051
-0.00427896
-0.00489313
-0.00574253
-0.00651279
-0.00727386
-0.00829796
-0.00958893
-0.0108596
-0.0118369
-0.0123757
-0.0123023
3.40245e-05
8.22179e-05
2.5434e-05
-0.0011095
-0.0021563
-0.00219324
-0.00257573
-0.00350793
-0.00407676
-0.00435923
-0.00493524
-0.00579986
-0.0066248
-0.00741176
-0.00842162
-0.00970456
-0.0110041
-0.0120221
-0.0125738
-0.0124771
5.2272e-05
5.40051e-05
-1.9652e-05
-0.001078
-0.00220283
-0.00232991
-0.0026219
-0.00350154
-0.0041364
-0.00444275
-0.00498109
-0.00584479
-0.00672055
-0.00754318
-0.00854293
-0.00980766
-0.0111227
-0.0121781
-0.0127495
-0.012637
7.17134e-05
2.49217e-05
-7.99214e-05
-0.00105905
-0.00223693
-0.00247215
-0.00269299
-0.00349476
-0.00417913
-0.00452388
-0.00503073
-0.00587876
-0.00679604
-0.00766086
-0.00865719
-0.00989888
-0.0112165
-0.0123026
-0.0128983
-0.0127785
8.29549e-05
-5.08085e-06
-0.000153776
-0.00105691
-0.00226052
-0.00261136
-0.00278707
-0.00349593
-0.00420611
-0.00459751
-0.00508288
-0.00590395
-0.00684893
-0.00775748
-0.00875809
-0.00997646
-0.0112859
-0.0123942
-0.0130159
-0.0128974
8.71403e-05
-3.67519e-05
-0.000238878
-0.00107484
-0.00227732
-0.0027405
-0.00289971
-0.00351107
-0.00422092
-0.00465971
-0.00513516
-0.00592289
-0.00687902
-0.00782691
-0.00883851
-0.0100355
-0.0113292
-0.0124505
-0.0130976
-0.012988
8.18973e-05
-7.16557e-05
-0.000332326
-0.00111376
-0.0022924
-0.00285626
-0.00302546
-0.00354341
-0.00422855
-0.00470778
-0.00518339
-0.00593614
-0.00688745
-0.00786467
-0.00889054
-0.0100691
-0.0113427
-0.0124676
-0.0131378
-0.0130438
6.48709e-05
-0.000112003
-0.000432176
-0.00117295
-0.00231112
-0.00295833
-0.00315821
-0.00359394
-0.00423424
-0.00474049
-0.00522244
-0.00594135
-0.00687471
-0.00786798
-0.00890692
-0.0100703
-0.0113207
-0.0124422
-0.0131311
-0.0130582
3.39365e-05
-0.000160048
-0.000536938
-0.00125133
-0.00233857
-0.0030486
-0.0032924
-0.00366144
-0.00424237
-0.00475816
-0.00524733
-0.00593466
-0.00683973
-0.00783497
-0.00888158
-0.0100315
-0.0112578
-0.0123709
-0.0130741
-0.0130232
-1.31087e-05
-0.000218859
-0.000645978
-0.0013471
-0.00237939
-0.00313096
-0.00342453
-0.00374336
-0.00425609
-0.00476234
-0.00525382
-0.0059111
-0.00678
-0.00776314
-0.00880869
-0.00994471
-0.0111471
-0.0122483
-0.0129619
-0.0129345
-7.80908e-05
-0.000290975
-0.000760629
-0.00145793
-0.00243625
-0.00320977
-0.00355246
-0.00383655
-0.00427802
-0.00475599
-0.0052396
-0.00586527
-0.00669119
-0.0076483
-0.00868171
-0.00980072
-0.0109791
-0.0120659
-0.012787
-0.0127842
-0.00016277
-0.000378906
-0.000882826
-0.00158284
-0.00251074
-0.00328958
-0.00367503
-0.00393735
-0.00430969
-0.0047427
-0.005204
-0.00579226
-0.00656741
-0.00748455
-0.00849302
-0.00958848
-0.0107404
-0.0118104
-0.0125368
-0.0125598
-0.000269116
-0.000485266
-0.00101413
-0.00172141
-0.00260455
-0.00337481
-0.00379379
-0.00404378
-0.00435182
-0.0047264
-0.00514789
-0.00568797
-0.006402
-0.00726401
-0.00823257
-0.00929332
-0.0104127
-0.011462
-0.0121916
-0.012243
-0.000398995
-0.000612708
-0.00115699
-0.00187305
-0.00271892
-0.00346989
-0.00391161
-0.00415615
-0.00440584
-0.00471179
-0.00507464
-0.00555043
-0.00618842
-0.00697676
-0.00788597
-0.008895
-0.00996996
-0.0109918
-0.0117221
-0.0118037
-0.000554965
-0.000763199
-0.00131434
-0.00203792
-0.00285421
-0.00357978
-0.00403301
-0.00427568
-0.00447429
-0.00470498
-0.0049909
-0.00538169
-0.00592192
-0.0066117
-0.00743249
-0.00836575
-0.00937695
-0.0103576
-0.011082
-0.0111939
-0.000739137
-0.00093971
-0.00148936
-0.00221742
-0.00300949
-0.0037083
-0.00416375
-0.00440515
-0.00456134
-0.00471391
-0.00490772
-0.00519143
-0.00560375
-0.00615474
-0.00684185
-0.00766451
-0.00858449
-0.00950354
-0.0102097
-0.0103598
-0.000954092
-0.0011459
-0.0016872
-0.00241368
-0.00318496
-0.00385729
-0.00430889
-0.00454854
-0.00467223
-0.00474886
-0.0048394
-0.00499811
-0.00525275
-0.00560706
-0.00608968
-0.00672468
-0.0075003
-0.00831919
-0.00899655
-0.00920801
-0.00120156
-0.00138437
-0.00191384
-0.00263073
-0.00338163
-0.00402895
-0.00447294
-0.00471064
-0.00481042
-0.00482297
-0.00480274
-0.00481942
-0.00490552
-0.00502058
-0.00517197
-0.00546491
-0.00595104
-0.00658239
-0.00720673
-0.00754754
-0.00147417
-0.00165908
-0.00217541
-0.00287335
-0.00359993
-0.0042259
-0.00466023
-0.00489687
-0.00498031
-0.00494649
-0.00482494
-0.00466629
-0.0045607
-0.00449041
-0.00430626
-0.00393506
-0.00351112
-0.00328445
-0.0034112
-0.00377198
-0.00177413
-0.0019748
-0.00247498
-0.00314412
-0.00384304
-0.00445027
-0.00487565
-0.00511402
-0.00518561
-0.00512753
-0.00493855
-0.00461105
-0.00418639
-0.00386735
-0.00382912
-0.00371454
-0.00286533
-0.00103458
0.00103872
0.00254378
-0.00212111
-0.00232663
-0.00280994
-0.0034433
-0.00411416
-0.00470101
-0.00512459
-0.00536523
-0.0054234
-0.00531905
-0.00511077
-0.00480011
-0.00398985
-0.00243343
-0.000662411
0.00093781
0.00233857
0.00364875
0.00475592
0.00528278
-0.00252214
-0.00271687
-0.00317576
-0.0037724
-0.00441271
-0.00497614
-0.00539586
-0.00563106
-0.00567535
-0.00543049
-0.00453484
-0.0030149
-0.001341
0.000190569
0.00151401
0.00271126
0.00384035
0.00488082
0.00566051
0.00582874
-0.0029736
-0.00315239
-0.00357165
-0.00413285
-0.00472951
-0.00526192
-0.00563737
-0.00574588
-0.00536845
-0.00435816
-0.00299164
-0.00154193
-0.000186718
0.00105424
0.00227213
0.00350929
0.00472932
0.00581331
0.00654616
0.00659898
-0.00346961
-0.00363133
-0.00400194
-0.00451039
-0.00503688
-0.00546604
-0.00562119
-0.00524796
-0.00441579
-0.0033014
-0.00207404
-0.000832835
0.000418727
0.00170008
0.00300238
0.00431667
0.00558905
0.0066878
0.00739122
0.0073669
-0.00399509
-0.00414954
-0.00446229
-0.00486048
-0.00523787
-0.0054026
-0.00516351
-0.00456384
-0.00368799
-0.00265851
-0.00152147
-0.000300737
0.000985093
0.00231736
0.00367914
0.0050389
0.00632843
0.00741326
0.00806853
0.00795946
-0.00453711
-0.0046896
-0.00490683
-0.00511827
-0.00522393
-0.00508914
-0.00468432
-0.00403092
-0.0031889
-0.002188
-0.00105607
0.000182431
0.00150004
0.00286965
0.0042643
0.00564061
0.00691819
0.00795986
0.00854701
0.00835469
-0.00507342
-0.00519519
-0.00527231
-0.00526121
-0.0051057
-0.00479448
-0.00430091
-0.00362563
-0.00278177
-0.00177973
-0.000641072
0.000611372
0.00194817
0.00333675
0.00473952
0.00610608
0.00735513
0.00835215
0.00888393
0.00863137
-0.00556415
-0.00562878
-0.00554903
-0.00533213
-0.00500158
-0.00456446
-0.00400467
-0.00329858
-0.00243775
-0.00142752
-0.000282638
0.000975977
0.00231947
0.00371237
0.00511257
0.00646656
0.007692
0.00865573
0.00914759
0.00885202
-0.00598256
-0.00598249
-0.00574911
-0.00537471
-0.0049197
-0.00439934
-0.00378831
-0.00305016
-0.00216615
-0.00113941
1.4173e-05
0.0012732
0.0026141
0.00400425
0.00540078
0.00674616
0.00795567
0.00889604
0.00935932
0.00903292
-0.006307
-0.00625756
-0.0059124
-0.00541377
-0.00485909
-0.00427412
-0.00362707
-0.00286744
-0.00196709
-0.000924106
0.000247622
0.00152241
0.00286879
0.00425646
0.0056475
0.00698534
0.00818163
0.00910398
0.00954623
0.00919751
-0.00651056
-0.00644566
-0.00605992
-0.00549987
-0.0048779
-0.00423459
-0.00354582
-0.00276683
-0.00185771
-0.000806587
0.000375328
0.00166544
0.00303505
0.00444488
0.00584839
0.0071865
0.00837712
0.00928899
0.009718
0.00935774
0.00876953
0.00374342
-0.00361361
-0.00873074
-0.00976024
-0.00850508
-0.00701965
-0.00599474
-0.00541488
-0.00511891
-0.0049848
-0.00495034
-0.00498118
-0.00504684
-0.00512626
-0.00521535
-0.0053152
-0.00541921
-0.00551799
-0.00560964
-0.00569881
-0.00578855
-0.00587777
-0.00596475
-0.00604987
-0.00613471
-0.00622025
-0.00630644
-0.00639301
-0.00648023
-0.00656878
-0.00665912
-0.00675114
-0.00684449
-0.00693898
-0.00703427
-0.00712967
-0.00722422
-0.00731745
-0.00740937
-0.00749993
-0.00758856
-0.00767454
-0.00775776
-0.00783899
-0.00791938
-0.00799966
-0.00807978
-0.00815938
-0.00823845
-0.00831725
-0.00839578
-0.00847323
-0.00854866
-0.00862147
-0.00869177
-0.00876007
-0.00882708
-0.00889341
-0.00895965
-0.00902618
-0.00909303
-0.00915985
-0.00922616
-0.00929164
-0.00935632
-0.00942043
-0.00948423
-0.009548
-0.00961195
-0.00967621
-0.0097407
-0.00980513
-0.00986921
-0.00993287
-0.00999643
-0.0100602
-0.0101242
-0.0101882
-0.010252
-0.0103154
-0.0103788
-0.0104423
-0.010506
-0.0105696
-0.0106333
-0.0106969
-0.0107607
-0.0108243
-0.010888
-0.0109518
-0.011016
-0.0110803
-0.0111446
-0.0112086
-0.0112729
-0.0113379
-0.0114033
-0.0114687
-0.0115332
-0.0115976
-0.0116622
-0.0117279
-0.0117939
-0.0118595
-0.0119241
-0.0119881
-0.012052
-0.0121165
-0.0121808
-0.0122446
-0.0123072
-0.012369
-0.0124303
-0.0124914
-0.0125521
-0.0126122
-0.0126717
-0.0127302
-0.0127879
-0.012845
-0.012902
-0.0129588
-0.0130148
-0.0130698
-0.0131241
-0.0131781
-0.0132319
-0.0132856
-0.0133384
-0.0133903
-0.0134416
-0.0134929
-0.0135444
-0.0135955
-0.0136455
-0.0136945
-0.0137444
-0.0137947
-0.0138439
-0.0138917
-0.0139404
-0.0139895
-0.014038
-0.0140853
-0.0141334
-0.0141816
-0.0142295
-0.014277
-0.0143248
-0.0143727
-0.0144204
-0.0144682
-0.0145162
-0.0145642
-0.0146121
-0.0146604
-0.0147086
-0.0147572
-0.0148055
-0.0148543
-0.014903
-0.014952
-0.015001
-0.0150502
-0.0150997
-0.0151489
-0.0151987
-0.0152483
-0.0152983
-0.0153485
-0.0153984
-0.0154492
-0.0154993
-0.0155505
-0.0156012
-0.0156525
-0.0157045
-0.0157556
-0.0158088
-0.0158602
-0.015914
-0.0159664
-0.0160202
-0.0160738
-0.0161277
-0.0161824
-0.0162362
-0.0162923
-0.0163457
-0.0164023
-0.0164574
-0.0165112
-0.0165696
-0.0166213
-0.0166763
-0.016731
-0.0167781
-0.0168212
-0.0168675
0.00803378
0.00356506
-0.00353547
-0.00859582
-0.00967997
-0.00846684
-0.00699558
-0.00597774
-0.00540266
-0.00510967
-0.00497735
-0.00494406
-0.00497573
-0.00504202
-0.00512191
-0.00521139
-0.00531156
-0.00541588
-0.00551493
-0.00560682
-0.00569619
-0.00578612
-0.00587552
-0.00596266
-0.00604793
-0.0061329
-0.00621855
-0.00630484
-0.00639151
-0.00647881
-0.00656744
-0.00665784
-0.00674993
-0.00684333
-0.00693788
-0.00703321
-0.00712865
-0.00722324
-0.00731651
-0.00740847
-0.00749906
-0.00758772
-0.00767374
-0.00775699
-0.00783825
-0.00791867
-0.00799899
-0.00807913
-0.00815876
-0.00823785
-0.00831668
-0.00839522
-0.0084727
-0.00854814
-0.00862097
-0.00869128
-0.00875961
-0.00882663
-0.00889298
-0.00895924
-0.00902578
-0.00909264
-0.00915948
-0.00922579
-0.00929129
-0.00935598
-0.0094201
-0.00948391
-0.00954769
-0.00961165
-0.00967592
-0.00974041
-0.00980486
-0.00986894
-0.00993261
-0.00999617
-0.0100599
-0.010124
-0.010188
-0.0102518
-0.0103152
-0.0103786
-0.0104421
-0.0105058
-0.0105694
-0.0106331
-0.0106967
-0.0107605
-0.0108241
-0.0108879
-0.0109517
-0.0110158
-0.0110802
-0.0111444
-0.0112085
-0.0112728
-0.0113378
-0.0114032
-0.0114685
-0.0115331
-0.0115974
-0.0116621
-0.0117278
-0.0117937
-0.0118594
-0.011924
-0.011988
-0.0120519
-0.0121164
-0.0121807
-0.0122445
-0.0123071
-0.0123689
-0.0124302
-0.0124913
-0.012552
-0.0126122
-0.0126716
-0.0127302
-0.0127878
-0.0128449
-0.0129019
-0.0129588
-0.0130148
-0.0130698
-0.013124
-0.013178
-0.0132319
-0.0132855
-0.0133384
-0.0133902
-0.0134416
-0.0134928
-0.0135443
-0.0135955
-0.0136455
-0.0136944
-0.0137444
-0.0137947
-0.0138439
-0.0138916
-0.0139404
-0.0139895
-0.014038
-0.0140853
-0.0141334
-0.0141816
-0.0142295
-0.014277
-0.0143248
-0.0143727
-0.0144204
-0.0144682
-0.0145161
-0.0145642
-0.0146121
-0.0146604
-0.0147086
-0.0147572
-0.0148055
-0.0148543
-0.014903
-0.014952
-0.015001
-0.0150502
-0.0150996
-0.0151489
-0.0151987
-0.0152483
-0.0152983
-0.0153485
-0.0153984
-0.0154492
-0.0154993
-0.0155505
-0.0156012
-0.0156525
-0.0157045
-0.0157556
-0.0158088
-0.0158602
-0.015914
-0.0159664
-0.0160202
-0.0160738
-0.0161277
-0.0161824
-0.0162362
-0.0162923
-0.0163457
-0.0164023
-0.0164574
-0.0165112
-0.0165696
-0.0166213
-0.0166763
-0.016731
-0.0167781
-0.0168212
-0.0168674
0.0072624
0.00338753
-0.00336332
-0.0083413
-0.0095349
-0.00840944
-0.00696442
-0.00595373
-0.00538387
-0.00509542
-0.00496648
-0.00493552
-0.00496881
-0.00503625
-0.00511696
-0.00520702
-0.00530765
-0.00541233
-0.00551167
-0.00560382
-0.00569343
-0.00578357
-0.00587316
-0.00596048
-0.00604591
-0.00613102
-0.0062168
-0.00630321
-0.00638998
-0.00647738
-0.00656609
-0.00665656
-0.00674872
-0.00684219
-0.00693678
-0.00703217
-0.00712766
-0.00722229
-0.0073156
-0.00740759
-0.00749821
-0.00758691
-0.00767296
-0.00775624
-0.00783753
-0.00791798
-0.00799832
-0.0080785
-0.00815815
-0.00823727
-0.00831612
-0.00839469
-0.00847218
-0.00854764
-0.00862049
-0.00869081
-0.00875916
-0.0088262
-0.00889256
-0.00895884
-0.0090254
-0.00909227
-0.00915912
-0.00922544
-0.00929095
-0.00935565
-0.00941978
-0.0094836
-0.00954739
-0.00961136
-0.00967564
-0.00974014
-0.00980459
-0.00986868
-0.00993236
-0.00999593
-0.0100597
-0.0101237
-0.0101877
-0.0102515
-0.010315
-0.0103784
-0.0104419
-0.0105056
-0.0105692
-0.0106329
-0.0106965
-0.0107603
-0.010824
-0.0108877
-0.0109515
-0.0110157
-0.01108
-0.0111443
-0.0112083
-0.0112726
-0.0113376
-0.0114031
-0.0114684
-0.0115329
-0.0115973
-0.011662
-0.0117277
-0.0117936
-0.0118593
-0.0119239
-0.0119879
-0.0120518
-0.0121163
-0.0121806
-0.0122444
-0.012307
-0.0123688
-0.0124302
-0.0124912
-0.0125519
-0.0126121
-0.0126716
-0.0127301
-0.0127877
-0.0128448
-0.0129019
-0.0129587
-0.0130147
-0.0130697
-0.013124
-0.013178
-0.0132318
-0.0132855
-0.0133383
-0.0133902
-0.0134416
-0.0134928
-0.0135443
-0.0135955
-0.0136454
-0.0136944
-0.0137443
-0.0137947
-0.0138439
-0.0138916
-0.0139404
-0.0139895
-0.0140379
-0.0140853
-0.0141334
-0.0141816
-0.0142295
-0.014277
-0.0143248
-0.0143726
-0.0144204
-0.0144682
-0.0145161
-0.0145642
-0.0146121
-0.0146604
-0.0147086
-0.0147572
-0.0148055
-0.0148543
-0.014903
-0.014952
-0.015001
-0.0150501
-0.0150996
-0.0151489
-0.0151987
-0.0152483
-0.0152983
-0.0153485
-0.0153984
-0.0154492
-0.0154993
-0.0155505
-0.0156012
-0.0156525
-0.0157045
-0.0157556
-0.0158088
-0.0158602
-0.015914
-0.0159664
-0.0160202
-0.0160738
-0.0161277
-0.0161824
-0.0162362
-0.0162923
-0.0163457
-0.0164023
-0.0164574
-0.0165112
-0.0165696
-0.0166213
-0.0166763
-0.016731
-0.0167781
-0.0168212
-0.0168674
0.0065289
0.0032304
-0.00312382
-0.00800515
-0.00933325
-0.00832795
-0.0069201
-0.00591756
-0.00535437
-0.00507307
-0.00494996
-0.0049231
-0.00495912
-0.00502844
-0.0051105
-0.00520155
-0.00530286
-0.00540802
-0.00550774
-0.00560022
-0.00569012
-0.00578053
-0.00587035
-0.00595788
-0.00604351
-0.00612882
-0.00621478
-0.00630134
-0.00638825
-0.00647577
-0.00656459
-0.00665517
-0.00674741
-0.00684096
-0.00693563
-0.00703108
-0.00712662
-0.0072213
-0.00731466
-0.00740669
-0.00749734
-0.00758607
-0.00767214
-0.00775545
-0.00783676
-0.00791724
-0.00799761
-0.00807782
-0.00815751
-0.00823666
-0.00831554
-0.00839414
-0.00847165
-0.00854713
-0.00861999
-0.00869033
-0.00875868
-0.00882574
-0.00889212
-0.00895842
-0.009025
-0.00909189
-0.00915875
-0.00922509
-0.0092906
-0.00935531
-0.00941945
-0.00948328
-0.00954709
-0.00961106
-0.00967536
-0.00973986
-0.00980432
-0.00986842
-0.00993211
-0.00999568
-0.0100595
-0.0101235
-0.0101875
-0.0102513
-0.0103148
-0.0103782
-0.0104417
-0.0105054
-0.010569
-0.0106327
-0.0106963
-0.0107601
-0.0108238
-0.0108875
-0.0109513
-0.0110155
-0.0110799
-0.0111441
-0.0112082
-0.0112725
-0.0113375
-0.0114029
-0.0114682
-0.0115328
-0.0115972
-0.0116619
-0.0117276
-0.0117935
-0.0118592
-0.0119238
-0.0119878
-0.0120517
-0.0121162
-0.0121805
-0.0122443
-0.0123069
-0.0123687
-0.0124301
-0.0124911
-0.0125519
-0.012612
-0.0126715
-0.01273
-0.0127877
-0.0128448
-0.0129018
-0.0129586
-0.0130147
-0.0130697
-0.0131239
-0.0131779
-0.0132318
-0.0132854
-0.0133383
-0.0133902
-0.0134415
-0.0134928
-0.0135443
-0.0135954
-0.0136454
-0.0136944
-0.0137443
-0.0137947
-0.0138439
-0.0138916
-0.0139404
-0.0139895
-0.0140379
-0.0140853
-0.0141334
-0.0141815
-0.0142295
-0.0142769
-0.0143248
-0.0143726
-0.0144204
-0.0144682
-0.0145161
-0.0145642
-0.0146121
-0.0146604
-0.0147086
-0.0147572
-0.0148055
-0.0148543
-0.014903
-0.014952
-0.015001
-0.0150501
-0.0150996
-0.0151489
-0.0151987
-0.0152483
-0.0152983
-0.0153485
-0.0153984
-0.0154492
-0.0154993
-0.0155505
-0.0156012
-0.0156525
-0.0157045
-0.0157556
-0.0158088
-0.0158602
-0.015914
-0.0159664
-0.0160202
-0.0160738
-0.0161277
-0.0161824
-0.0162362
-0.0162923
-0.0163457
-0.0164023
-0.0164574
-0.0165112
-0.0165696
-0.0166213
-0.0166763
-0.016731
-0.0167782
-0.0168212
-0.0168674
0.00582412
0.00306283
-0.00286627
-0.00763984
-0.00910675
-0.00823523
-0.00686901
-0.00587236
-0.00531488
-0.00504203
-0.00492666
-0.00490548
-0.00494537
-0.0050174
-0.00510153
-0.00519413
-0.00529647
-0.0054023
-0.00550252
-0.00559546
-0.00568577
-0.0057765
-0.0058666
-0.00595441
-0.00604033
-0.00612591
-0.00621212
-0.0062989
-0.006386
-0.00647371
-0.00656271
-0.00665345
-0.00674583
-0.00683949
-0.00693425
-0.00702979
-0.00712541
-0.00722016
-0.00731359
-0.00740567
-0.00749635
-0.0075851
-0.0076712
-0.00775453
-0.00783587
-0.00791638
-0.00799678
-0.00807702
-0.00815676
-0.00823595
-0.00831489
-0.00839352
-0.00847107
-0.00854655
-0.00861942
-0.00868977
-0.00875813
-0.00882521
-0.00889161
-0.00895794
-0.00902455
-0.00909146
-0.00915834
-0.00922469
-0.00929021
-0.00935493
-0.00941908
-0.00948293
-0.00954674
-0.00961074
-0.00967504
-0.00973956
-0.00980403
-0.00986813
-0.00993183
-0.00999541
-0.0100592
-0.0101232
-0.0101873
-0.0102511
-0.0103145
-0.010378
-0.0104414
-0.0105052
-0.0105688
-0.0106325
-0.0106961
-0.0107599
-0.0108236
-0.0108873
-0.0109511
-0.0110153
-0.0110797
-0.0111439
-0.011208
-0.0112723
-0.0113373
-0.0114028
-0.0114681
-0.0115327
-0.011597
-0.0116617
-0.0117274