/*--------------------------------*- C++ -*----------------------------------*\
| =========                 |                                                 |
| \\      /  F ield         | OpenFOAM: The Open Source CFD Toolbox           |
|  \\    /   O peration     | Version:  v2012                                 |
|   \\  /    A nd           | Website:  www.openfoam.com                      |
|    \\/     M anipulation  |                                                 |
\*---------------------------------------------------------------------------*/
FoamFile
{
    version     2.0;
    format      ascii;
    class       surfaceScalarField;
    location    "1.25";
    object      phi;
}
// * * * * * * * * * * * * * * * * * * * * * * * * * * * * * * * * * * * * * //

dimensions      [0 3 -1 0 0 0 0];
oriented        oriented;


internalField   nonuniform List<scalar> 
34900
(
1.17202e-06
-7.69568e-08
1.16943e-06
-8.67335e-08
1.17892e-06
1.71921e-07
1.17287e-06
2.73786e-08
1.17818e-06
3.3357e-07
1.16022e-06
-1.65966e-07
1.16634e-06
1.87984e-07
1.15041e-06
-3.75101e-08
1.15554e-06
-6.32714e-09
1.14592e-06
6.57298e-08
1.15093e-06
6.93521e-09
1.14077e-06
1.33402e-08
1.14693e-06
1.81462e-08
1.13696e-06
1.42517e-08
1.14379e-06
2.31941e-08
1.13217e-06
2.18276e-10
1.13927e-06
3.61504e-08
1.12609e-06
-2.23206e-09
1.12861e-06
6.48207e-08
1.09514e-08
1.09172e-06
1.22749e-06
-8.01839e-08
1.22559e-06
-8.48322e-08
1.23391e-06
1.63602e-07
1.23018e-06
3.11017e-08
1.23201e-06
3.31747e-07
1.2162e-06
-1.50163e-07
1.21846e-06
1.85731e-07
1.20706e-06
-2.61138e-08
1.20785e-06
-7.11562e-09
1.20445e-06
6.91241e-08
1.20416e-06
7.23334e-09
1.2008e-06
1.66984e-08
1.19912e-06
1.98214e-08
1.19934e-06
1.40304e-08
1.19412e-06
2.84132e-08
1.19774e-06
-3.39506e-09
1.18626e-06
4.76323e-08
1.19512e-06
-1.1094e-08
1.17067e-06
8.92729e-08
6.75865e-09
1.17486e-06
1.28445e-06
-8.18522e-08
1.28536e-06
-8.574e-08
1.29023e-06
1.58728e-07
1.29064e-06
3.06946e-08
1.28841e-06
3.33973e-07
1.27697e-06
-1.38714e-07
1.27348e-06
1.89219e-07
1.26876e-06
-2.1398e-08
1.26295e-06
-1.30049e-09
1.2666e-06
6.54728e-08
1.26006e-06
1.37675e-08
1.26362e-06
1.31466e-08
1.25541e-06
2.80255e-08
1.26174e-06
7.70571e-09
1.25177e-06
3.83769e-08
1.25835e-06
-9.97411e-09
1.24729e-06
5.86924e-08
1.25159e-06
-1.53876e-08
1.23953e-06
1.01329e-07
1.9588e-08
1.2267e-06
1.34329e-06
-8.10381e-08
1.34734e-06
-8.97907e-08
1.3483e-06
1.57768e-07
1.35299e-06
2.60005e-08
1.34814e-06
3.38825e-07
1.34147e-06
-1.32041e-07
1.3336e-06
1.97091e-07
1.33396e-06
-2.17621e-08
1.32372e-06
8.94094e-09
1.32992e-06
5.92731e-08
1.32184e-06
2.18504e-08
1.32632e-06
8.66487e-09
1.31849e-06
3.58513e-08
1.32338e-06
2.82299e-09
1.31663e-06
4.51213e-08
1.31937e-06
-1.27103e-08
1.31399e-06
6.40646e-08
1.31246e-06
-1.38546e-08
1.30743e-06
1.06356e-07
3.62654e-08
1.29076e-06
1.405e-06
-7.76882e-08
1.41077e-06
-9.55603e-08
1.40879e-06
1.59755e-07
1.41614e-06
1.86517e-08
1.41156e-06
3.43397e-07
1.40823e-06
-1.28711e-07
1.39941e-06
2.05916e-07
1.40144e-06
-2.37887e-08
1.39078e-06
1.96013e-08
1.39556e-06
5.44925e-08
1.38946e-06
2.79428e-08
1.39198e-06
6.15144e-09
1.38685e-06
4.09748e-08
1.38924e-06
4.41897e-10
1.38542e-06
4.89354e-08
1.38586e-06
-1.31476e-08
1.38283e-06
6.70917e-08
1.37919e-06
-1.0217e-08
1.37609e-06
1.09464e-07
5.30264e-08
1.35933e-06
1.47076e-06
-7.27694e-08
1.476e-06
-1.00799e-07
1.47279e-06
1.62956e-07
1.48049e-06
1.09606e-08
1.47872e-06
3.4516e-07
1.47696e-06
-1.26944e-07
1.47e-06
2.12871e-07
1.47144e-06
-2.52269e-08
1.46267e-06
2.83686e-08
1.46518e-06
5.19852e-08
1.46137e-06
3.17487e-08
1.46234e-06
5.18134e-09
1.45899e-06
4.43284e-08
1.4602e-06
-7.68473e-10
1.45758e-06
5.1559e-08
1.45713e-06
-1.26962e-08
1.45499e-06
6.92225e-08
1.45e-06
-5.22354e-09
1.44828e-06
1.11182e-07
6.99399e-08
1.43137e-06
1.54118e-06
-6.77377e-08
1.54418e-06
-1.03796e-07
1.54126e-06
1.65875e-07
1.5476e-06
4.62739e-09
1.54943e-06
3.43323e-07
1.5482e-06
-1.2571e-07
1.54407e-06
2.16996e-07
1.54453e-06
-2.56848e-08
1.53792e-06
3.49751e-08
1.53908e-06
5.08319e-08
1.53661e-06
3.42138e-08
1.53706e-06
4.73413e-09
1.53453e-06
4.68577e-08
1.53534e-06
-1.58395e-09
1.53332e-06
5.35837e-08
1.5322e-06
-1.1572e-08
1.53089e-06
7.05281e-08
1.52448e-06
1.18985e-09
1.52406e-06
1.11603e-07
8.67165e-08
1.50728e-06
1.61612e-06
-6.37277e-08
1.6165e-06
-1.04174e-07
1.61455e-06
1.67824e-07
1.61899e-06
1.84679e-10
1.62361e-06
3.3871e-07
1.62261e-06
-1.24718e-07
1.621e-06
2.18605e-07
1.62096e-06
-2.56437e-08
1.61607e-06
3.987e-08
1.61684e-06
5.00605e-08
1.61506e-06
3.59909e-08
1.61548e-06
4.31228e-09
1.61347e-06
4.88687e-08
1.61406e-06
-2.17038e-09
1.61263e-06
5.5016e-08
1.61074e-06
-9.68716e-09
1.61035e-06
7.09219e-08
1.60258e-06
8.96052e-09
1.60316e-06
1.11016e-07
1.02815e-07
1.58707e-06
1.69494e-06
-6.10886e-08
1.69348e-06
-1.0272e-07
1.69253e-06
1.6878e-07
1.69543e-06
-2.72118e-09
1.70143e-06
3.32716e-07
1.70062e-06
-1.23912e-07
1.70091e-06
2.18314e-07
1.70079e-06
-2.55256e-08
1.69727e-06
4.33948e-08
1.69813e-06
4.91945e-08
1.69682e-06
3.73019e-08
1.69731e-06
3.82683e-09
1.6958e-06
5.0373e-08
1.6961e-06
-2.46817e-09
1.69537e-06
5.57462e-08
1.69263e-06
-6.94347e-09
1.69318e-06
7.03739e-08
1.68424e-06
1.78988e-08
1.68546e-06
1.09795e-07
1.17692e-07
1.67058e-06
1.77714e-06
-5.95102e-08
1.77504e-06
-1.00616e-07
1.77487e-06
1.68954e-07
1.77689e-06
-4.74266e-09
1.78316e-06
3.26439e-07
1.78241e-06
-1.23162e-07
1.78413e-06
2.16602e-07
1.78403e-06
-2.5431e-08
1.78172e-06
4.57061e-08
1.78278e-06
4.81304e-08
1.78191e-06
3.81808e-08
1.78237e-06
3.35976e-09
1.78144e-06
5.13058e-08
1.78132e-06
-2.34466e-09
1.78139e-06
5.56694e-08
1.77773e-06
-3.27738e-09
1.77915e-06
6.89483e-08
1.76935e-06
2.7703e-08
1.77077e-06
1.08374e-07
1.30853e-07
1.75761e-06
1.8627e-06
-5.84593e-08
1.86084e-06
-9.8754e-08
1.86127e-06
1.68519e-07
1.86295e-06
-6.42474e-09
1.86899e-06
3.20403e-07
1.8681e-06
-1.22276e-07
1.87092e-06
2.13787e-07
1.87074e-06
-2.52558e-08
1.86954e-06
4.69114e-08
1.87072e-06
4.69482e-08
1.8703e-06
3.86042e-08
1.8706e-06
3.05258e-09
1.87032e-06
5.15904e-08
1.86963e-06
-1.65771e-09
1.87057e-06
5.47278e-08
1.86599e-06
1.30233e-09
1.86811e-06
6.68317e-08
1.85784e-06
3.79705e-08
1.85898e-06
1.07236e-07
1.41906e-07
1.84793e-06
1.95191e-06
-5.75254e-08
1.95065e-06
-9.74983e-08
1.95159e-06
1.67581e-07
1.95325e-06
-8.08381e-09
1.95897e-06
3.1468e-07
1.95779e-06
-1.21092e-07
1.96148e-06
2.10093e-07
1.96107e-06
-2.48467e-08
1.96085e-06
4.71326e-08
1.96199e-06
4.58032e-08
1.96207e-06
3.85243e-08
1.96207e-06
3.05734e-09
1.9625e-06
5.11611e-08
1.96114e-06
-3.01695e-10
1.96293e-06
5.29413e-08
1.95755e-06
6.67804e-09
1.96005e-06
6.43366e-08
1.94978e-06
4.82392e-08
1.9502e-06
1.06817e-07
1.50656e-07
1.94145e-06
2.04518e-06
-5.65211e-08
2.0445e-06
-9.68171e-08
2.04586e-06
1.66224e-07
2.04762e-06
-9.84678e-09
2.05318e-06
3.09119e-07
2.05162e-06
-1.19523e-07
2.05603e-06
2.05675e-07
2.05526e-06
-2.4076e-08
2.05591e-06
4.64881e-08
2.05684e-06
4.4872e-08
2.05749e-06
3.78766e-08
2.05704e-06
3.5084e-09
2.05822e-06
4.99774e-08
2.05615e-06
1.76489e-09
2.05868e-06
5.04125e-08
2.05273e-06
1.26324e-08
2.05521e-06
6.18553e-08
2.04539e-06
5.80565e-08
2.04478e-06
1.07424e-07
1.57147e-07
2.03829e-06
2.1429e-06
-5.54215e-08
2.1426e-06
-9.65128e-08
2.14429e-06
1.6453e-07
2.14617e-06
-1.17271e-08
2.15178e-06
3.03511e-07
2.14979e-06
-1.17534e-07
2.15485e-06
2.00614e-07
2.15363e-06
-2.28505e-08
2.15506e-06
4.50558e-08
2.15561e-06
4.4321e-08
2.15689e-06
3.6592e-08
2.1559e-06
4.50206e-09
2.15784e-06
4.8039e-08
2.15511e-06
4.49719e-09
2.15818e-06
4.73385e-08
2.15195e-06
1.88587e-08
2.154e-06
5.98054e-08
2.14502e-06
6.70433e-08
2.14325e-06
1.09188e-07
1.61634e-07
2.13877e-06
2.24534e-06
-5.42723e-08
2.2452e-06
-9.63761e-08
2.24717e-06
1.62559e-07
2.24913e-06
-1.36835e-08
2.25497e-06
2.97667e-07
2.25254e-06
-1.15103e-07
2.25823e-06
1.94925e-07
2.25648e-06
-2.10942e-08
2.25867e-06
4.28576e-08
2.25871e-06
4.42881e-08
2.26069e-06
3.46108e-08
2.25911e-06
6.08261e-09
2.26175e-06
4.54008e-08
2.25849e-06
7.75546e-09
2.26183e-06
4.39929e-08
2.25567e-06
2.50186e-08
2.25692e-06
5.8554e-08
2.24902e-06
7.49444e-08
2.24615e-06
1.12065e-07
1.64522e-07
2.24326e-06
2.35274e-06
-5.31321e-08
2.3526e-06
-9.62405e-08
2.35482e-06
1.60336e-07
2.35679e-06
-1.56516e-08
2.36302e-06
2.91435e-07
2.36012e-06
-1.12195e-07
2.36647e-06
1.88567e-07
2.36411e-06
-1.87321e-08
2.3671e-06
3.98704e-08
2.36651e-06
4.48728e-08
2.36922e-06
3.19018e-08
2.36708e-06
8.22589e-09
2.37029e-06
4.21934e-08
2.36674e-06
1.13003e-08
2.37003e-06
4.07047e-08
2.36426e-06
3.07925e-08
2.36446e-06
5.83537e-08
2.35773e-06
8.16684e-08
2.35395e-06
1.15852e-07
1.66277e-07
2.35219e-06
2.46532e-06
-5.2052e-08
2.46505e-06
-9.59789e-08
2.46755e-06
1.5784e-07
2.46945e-06
-1.75547e-08
2.4762e-06
2.84684e-07
2.47276e-06
-1.08751e-07
2.47986e-06
1.81467e-07
2.47682e-06
-1.56875e-08
2.48063e-06
3.60527e-08
2.47938e-06
4.61268e-08
2.4828e-06
2.84843e-08
2.4802e-06
1.08221e-08
2.48376e-06
3.86314e-08
2.48025e-06
1.4817e-08
2.48313e-06
3.7816e-08
2.478e-06
3.5925e-08
2.47706e-06
5.93006e-08
2.47141e-06
8.73099e-08
2.46705e-06
1.20214e-07
1.67367e-07
2.46596e-06
2.58332e-06
-5.10735e-08
2.58282e-06
-9.54858e-08
2.58565e-06
1.55015e-07
2.5874e-06
-1.93056e-08
2.59479e-06
2.77292e-07
2.59073e-06
-1.04693e-07
2.59866e-06
1.73534e-07
2.59487e-06
-1.18907e-08
2.59955e-06
3.13739e-08
2.59763e-06
4.8043e-08
2.60167e-06
2.44483e-08
2.59882e-06
1.36679e-08
2.60245e-06
3.49997e-08
2.5993e-06
1.79655e-08
2.6015e-06
3.56238e-08
2.59716e-06
4.02629e-08
2.59514e-06
6.13179e-08
2.59033e-06
9.21202e-08
2.58578e-06
1.24765e-07
1.68201e-07
2.58494e-06
2.70699e-06
-5.02321e-08
2.70616e-06
-9.46622e-08
2.70941e-06
1.51772e-07
2.71091e-06
-2.08062e-08
2.71906e-06
2.69136e-07
2.7143e-06
-9.9929e-08
2.72315e-06
1.64685e-07
2.71855e-06
-7.29542e-09
2.72408e-06
2.58426e-08
2.72159e-06
5.05355e-08
2.72607e-06
1.99749e-08
2.72326e-06
1.64687e-08
2.72664e-06
3.16227e-08
2.72417e-06
2.04374e-08
2.72547e-06
3.43209e-08
2.72194e-06
4.37945e-08
2.71908e-06
6.41778e-08
2.71479e-06
9.64146e-08
2.71037e-06
1.2918e-07
1.69071e-07
2.7095e-06
2.8366e-06
-4.956e-08
2.83534e-06
-9.34082e-08
2.83911e-06
1.47999e-07
2.84026e-06
-2.19496e-08
2.8493e-06
2.60095e-07
2.84374e-06
-9.43749e-08
2.85357e-06
1.54856e-07
2.84818e-06
-1.89903e-09
2.85449e-06
1.95321e-08
2.8516e-06
5.34254e-08
2.85624e-06
1.53372e-08
2.85384e-06
1.8863e-08
2.85664e-06
2.88217e-08
2.85506e-06
2.20151e-08
2.85544e-06
3.39451e-08
2.85258e-06
4.66562e-08
2.84919e-06
6.75636e-08
2.84514e-06
1.00467e-07
2.84103e-06
1.33289e-07
1.70112e-07
2.83999e-06
2.97242e-06
-4.90871e-08
2.97064e-06
-9.16205e-08
2.97507e-06
1.43568e-07
2.97574e-06
-2.26254e-08
2.98578e-06
2.50059e-07
2.97937e-06
-8.79652e-08
2.9902e-06
1.44027e-07
2.98406e-06
4.23495e-09
2.991e-06
1.2601e-08
2.98798e-06
5.64366e-08
2.99244e-06
1.08795e-08
2.99084e-06
2.04672e-08
2.9928e-06
2.68602e-08
2.99219e-06
2.26234e-08
2.99179e-06
3.435e-08
2.98934e-06
4.90986e-08
2.98577e-06
7.1141e-08
2.98179e-06
1.04441e-07
2.97796e-06
1.3712e-07
1.71331e-07
2.97674e-06
3.11476e-06
-4.88411e-08
3.11233e-06
-8.91932e-08
3.11756e-06
1.38339e-07
3.11767e-06
-2.27306e-08
3.12879e-06
2.38939e-07
3.1215e-06
-8.06752e-08
3.13328e-06
1.32241e-07
3.12656e-06
1.09577e-08
3.13386e-06
5.30512e-09
3.13109e-06
5.92002e-08
3.13499e-06
6.98333e-09
3.13451e-06
2.09417e-08
3.1355e-06
2.58767e-08
3.13576e-06
2.23572e-08
3.13489e-06
3.52272e-08
3.13258e-06
5.14015e-08
3.1291e-06
7.46218e-08
3.12516e-06
1.08382e-07
3.12141e-06
1.40874e-07
1.72686e-07
3.12005e-06
3.26392e-06
-4.88467e-08
3.26074e-06
-8.60219e-08
3.2669e-06
1.32179e-07
3.26636e-06
-2.2182e-08
3.27861e-06
2.26686e-07
3.27047e-06
-7.25413e-08
3.28309e-06
1.19629e-07
3.27603e-06
1.80157e-08
3.28334e-06
-2.00252e-09
3.28125e-06
6.12866e-08
3.28423e-06
4.00716e-09
3.28509e-06
2.00748e-08
3.28515e-06
2.58166e-08
3.28604e-06
2.14697e-08
3.28509e-06
3.61805e-08
3.28272e-06
5.37685e-08
3.27951e-06
7.78339e-08
3.27566e-06
1.12233e-07
3.27171e-06
1.44822e-07
1.74223e-07
3.27017e-06
3.42021e-06
-4.91237e-08
3.4162e-06
-8.20089e-08
3.42341e-06
1.24968e-07
3.42216e-06
-2.09322e-08
3.43553e-06
2.13312e-07
3.42667e-06
-6.36852e-08
3.43988e-06
1.06425e-07
3.43284e-06
2.50503e-08
3.43974e-06
-8.9034e-09
3.43876e-06
6.22739e-08
3.44057e-06
2.19478e-09
3.44277e-06
1.78772e-08
3.4422e-06
2.63842e-08
3.44333e-06
2.03358e-08
3.44269e-06
3.68245e-08
3.44014e-06
5.63196e-08
3.43714e-06
8.08343e-08
3.4335e-06
1.15867e-07
3.42928e-06
1.49044e-07
1.76227e-07
3.42728e-06
3.58397e-06
-4.96855e-08
3.57904e-06
-7.70718e-08
3.58738e-06
1.1662e-07
3.58544e-06
-1.89919e-08
3.59985e-06
1.98909e-07
3.5905e-06
-5.43362e-08
3.60395e-06
9.29784e-08
3.59738e-06
3.16142e-08
3.60343e-06
-1.4955e-08
3.60389e-06
6.18135e-08
3.60448e-06
1.61332e-09
3.60777e-06
1.45799e-08
3.60702e-06
2.71348e-08
3.608e-06
1.93554e-08
3.60784e-06
3.69877e-08
3.60476e-06
5.93954e-08
3.60156e-06
8.40355e-08
3.59825e-06
1.19175e-07
3.59427e-06
1.53027e-07
1.79075e-07
3.59142e-06
3.75556e-06
-5.05356e-08
3.74964e-06
-7.11575e-08
3.75915e-06
1.07109e-07
3.75662e-06
-1.6457e-08
3.77185e-06
1.83673e-07
3.76235e-06
-4.4837e-08
3.7756e-06
7.9728e-08
3.76999e-06
3.72299e-08
3.77482e-06
-1.97832e-08
3.77688e-06
5.9748e-08
3.77641e-06
2.08726e-09
3.78039e-06
1.05967e-08
3.77988e-06
2.76508e-08
3.78026e-06
1.89686e-08
3.78e-06
3.72467e-08
3.77562e-06
6.37762e-08
3.77167e-06
8.79904e-08
3.76872e-06
1.2212e-07
3.76582e-06
1.55928e-07
1.82269e-07
3.76263e-06
3.93532e-06
-5.16646e-08
3.92842e-06
-6.42572e-08
3.93903e-06
9.64987e-08
3.9361e-06
-1.35342e-08
3.95185e-06
1.67925e-07
3.94266e-06
-3.56479e-08
3.95521e-06
6.7183e-08
3.95098e-06
4.14542e-08
3.95438e-06
-2.31775e-08
3.95793e-06
5.62013e-08
3.95678e-06
3.23131e-09
3.96093e-06
6.45155e-09
3.96073e-06
2.78423e-08
3.95964e-06
2.00652e-08
3.95754e-06
3.93425e-08
3.95216e-06
6.91607e-08
3.94744e-06
9.27135e-08
3.94484e-06
1.24714e-07
3.94306e-06
1.57711e-07
1.84182e-07
3.94115e-06
4.12363e-06
-5.30482e-08
4.1158e-06
-5.64196e-08
4.12733e-06
8.49691e-08
4.12435e-06
-1.05587e-08
4.14017e-06
1.52103e-07
4.13183e-06
-2.73042e-08
4.14317e-06
5.58376e-08
4.14065e-06
4.3981e-08
4.1426e-06
-2.51348e-08
4.1473e-06
5.15087e-08
4.14583e-06
4.70129e-09
4.14948e-06
2.79517e-09
4.14894e-06
2.83827e-08
4.1448e-06
2.42095e-08
4.14117e-06
4.29667e-08
4.13566e-06
7.4675e-08
4.13066e-06
9.77173e-08
4.12836e-06
1.27014e-07
4.12735e-06
1.5872e-07
1.84072e-07
4.12746e-06
4.3209e-06
-5.46428e-08
4.31225e-06
-4.77718e-08
4.32436e-06
7.2854e-08
4.32181e-06
-8.00405e-09
4.33717e-06
1.36746e-07
4.33021e-06
-2.03479e-08
4.33998e-06
4.6071e-08
4.33921e-06
4.47518e-08
4.33997e-06
-2.58939e-08
4.34528e-06
4.61942e-08
4.34347e-06
6.50883e-09
4.34575e-06
5.21915e-10
4.34327e-06
3.08574e-08
4.33701e-06
3.04736e-08
4.33288e-06
4.70978e-08
4.32791e-06
7.96395e-08
4.32297e-06
1.02658e-07
4.32087e-06
1.29115e-07
4.32075e-06
1.58834e-07
1.82651e-07
4.32218e-06
4.52751e-06
-5.63833e-08
4.51827e-06
-3.85283e-08
4.53047e-06
6.06547e-08
4.52892e-06
-6.45615e-09
4.54325e-06
1.22419e-07
4.53811e-06
-1.52086e-08
4.54618e-06
3.80027e-08
4.54687e-06
4.40635e-08
4.54685e-06
-2.58779e-08
4.55199e-06
4.10521e-08
4.54937e-06
9.12778e-09
4.54942e-06
4.729e-10
4.54532e-06
3.49583e-08
4.53817e-06
3.76296e-08
4.53396e-06
5.13022e-08
4.52987e-06
8.37351e-08
4.52519e-06
1.07336e-07
4.52324e-06
1.3106e-07
4.52412e-06
1.57959e-07
1.80748e-07
4.52602e-06
4.74391e-06
-5.81819e-08
4.73438e-06
-2.89971e-08
4.746e-06
4.90335e-08
4.74609e-06
-6.54374e-09
4.75892e-06
1.09594e-07
4.75577e-06
-1.20624e-08
4.76237e-06
3.13975e-08
4.76388e-06
4.2556e-08
4.76343e-06
-2.54208e-08
4.76751e-06
3.69661e-08
4.76345e-06
1.31935e-08
4.76137e-06
2.5442e-09
4.75688e-06
3.94481e-08
4.74938e-06
4.51298e-08
4.7452e-06
5.54841e-08
4.74195e-06
8.69831e-08
4.73774e-06
1.11553e-07
4.73608e-06
1.32721e-07
4.73746e-06
1.56571e-07
1.78456e-07
4.73976e-06
4.97055e-06
-5.99305e-08
4.96112e-06
-1.95659e-08
4.97138e-06
3.87649e-08
4.97368e-06
-8.83834e-09
4.98476e-06
9.85107e-08
4.9834e-06
-1.07021e-08
4.9891e-06
2.56969e-08
4.99056e-06
4.10929e-08
4.98963e-06
-2.44854e-08
4.9922e-06
3.43941e-08
4.98656e-06
1.88326e-08
4.98296e-06
6.14504e-09
4.97886e-06
4.35516e-08
4.97139e-06
5.25979e-08
4.96709e-06
5.97807e-08
4.96452e-06
8.95528e-08
4.96102e-06
1.15059e-07
4.95971e-06
1.34026e-07
4.96112e-06
1.55161e-07
1.75653e-07
4.96392e-06
5.20789e-06
-6.15063e-08
5.19901e-06
-1.06816e-08
5.20712e-06
3.06531e-08
5.212e-06
-1.37198e-08
5.22146e-06
8.90528e-08
5.22129e-06
-1.05299e-08
5.22671e-06
2.02706e-08
5.22735e-06
4.04579e-08
5.22548e-06
-2.26123e-08
5.22673e-06
3.31415e-08
5.21983e-06
2.57291e-08
5.21521e-06
1.07668e-08
5.21179e-06
4.69701e-08
5.2047e-06
5.96838e-08
5.20011e-06
6.43805e-08
5.198e-06
9.16617e-08
5.19547e-06
1.17588e-07
5.19439e-06
1.351e-07
5.19573e-06
1.53828e-07
1.72408e-07
5.19897e-06
5.45646e-06
-6.27796e-08
5.4486e-06
-2.82079e-09
5.45391e-06
2.53422e-08
5.46133e-06
-2.11344e-08
5.46965e-06
8.07336e-08
5.46985e-06
-1.0733e-08
5.47534e-06
1.47837e-08
5.47482e-06
4.09706e-08
5.47144e-06
-1.92298e-08
5.47186e-06
3.2722e-08
5.46427e-06
3.33192e-08
5.45889e-06
1.61521e-08
5.45615e-06
4.97057e-08
5.44975e-06
6.60837e-08
5.44477e-06
6.93627e-08
5.4429e-06
9.35314e-08
5.44145e-06
1.19041e-07
5.44054e-06
1.36002e-07
5.44187e-06
1.52498e-07
1.68878e-07
5.4454e-06
5.71681e-06
-6.36287e-08
5.71042e-06
3.56189e-09
5.71265e-06
2.31132e-08
5.72194e-06
-3.04187e-08
5.72985e-06
7.28254e-08
5.72961e-06
-1.05014e-08
5.73511e-06
9.29011e-09
5.73363e-06
4.24485e-08
5.72843e-06
-1.40319e-08
5.72837e-06
3.27886e-08
5.72071e-06
4.09734e-08
5.71464e-06
2.2226e-08
5.71243e-06
5.19126e-08
5.70691e-06
7.16007e-08
5.70164e-06
7.4635e-08
5.69985e-06
9.5319e-08
5.6993e-06
1.19595e-07
5.69871e-06
1.36596e-07
5.7001e-06
1.51102e-07
1.65198e-07
5.70378e-06
5.98951e-06
-6.3947e-08
5.98503e-06
8.04259e-09
5.98423e-06
2.39179e-08
5.99425e-06
-4.04458e-08
6.00246e-06
6.46231e-08
6.00118e-06
-9.22185e-09
6.00639e-06
4.0715e-09
6.00433e-06
4.45115e-08
5.99745e-06
-7.15356e-09
5.99701e-06
3.32323e-08
5.9899e-06
4.80848e-08
5.98307e-06
2.90545e-08
5.98115e-06
5.38315e-08
5.97662e-06
7.61266e-08
5.97129e-06
7.99734e-08
5.9695e-06
9.71006e-08
5.96952e-06
1.19584e-07
5.96943e-06
1.36686e-07
5.97097e-06
1.49555e-07
1.61452e-07
5.97472e-06
6.27519e-06
-6.36502e-08
6.27296e-06
1.02789e-08
6.26943e-06
2.74419e-08
6.2789e-06
-4.99182e-08
6.28781e-06
5.57165e-08
6.28521e-06
-6.62259e-09
6.28982e-06
-5.42206e-10
6.28747e-06
4.6866e-08
6.27927e-06
1.04868e-09
6.27854e-06
3.39609e-08
6.27234e-06
5.42795e-08
6.26488e-06
3.65193e-08
6.26289e-06
5.58228e-08
6.25936e-06
7.96509e-08
6.25426e-06
8.50787e-08
6.25246e-06
9.89026e-08
6.25274e-06
1.19302e-07
6.25324e-06
1.36186e-07
6.25504e-06
1.47755e-07
1.57666e-07
6.25883e-06
6.5745e-06
-6.26759e-08
6.57471e-06
1.00654e-08
6.56897e-06
3.3182e-08
6.57677e-06
-5.77179e-08
6.58635e-06
4.61344e-08
6.58244e-06
-2.71601e-09
6.58618e-06
-4.28263e-09
6.58391e-06
4.91354e-08
6.57466e-06
1.03012e-08
6.57359e-06
3.50371e-08
6.56858e-06
5.92813e-08
6.56074e-06
4.43672e-08
6.55831e-06
5.82444e-08
6.55568e-06
8.22859e-08
6.55111e-06
8.96526e-08
6.54931e-06
1.00694e-07
6.54968e-06
1.18933e-07
6.55074e-06
1.35134e-07
6.55287e-06
1.45617e-07
1.53805e-07
6.55673e-06
6.8881e-06
-6.09871e-08
6.89074e-06
7.42943e-09
6.88348e-06
4.04444e-08
6.88887e-06
-6.31097e-08
6.89864e-06
3.63576e-08
6.89363e-06
2.29476e-09
6.89624e-06
-6.88989e-09
6.8946e-06
5.07784e-08
6.8845e-06
2.0394e-08
6.88283e-06
3.67112e-08
6.87914e-06
6.29709e-08
6.87128e-06
5.22324e-08
6.86816e-06
6.13557e-08
6.8662e-06
8.42479e-08
6.86239e-06
9.34643e-08
6.86069e-06
1.02397e-07
6.86107e-06
1.18549e-07
6.86257e-06
1.33633e-07
6.86508e-06
1.43111e-07
1.49815e-07
6.86907e-06
7.21672e-06
-5.85732e-08
7.22154e-06
2.61444e-09
7.21357e-06
4.84152e-08
7.21616e-06
-6.56988e-08
7.22557e-06
2.69408e-08
7.21943e-06
8.43413e-09
7.22075e-06
-8.20628e-09
7.22015e-06
5.13805e-08
7.20965e-06
3.08867e-08
7.20701e-06
3.93585e-08
7.20455e-06
6.54242e-08
7.19712e-06
5.96707e-08
7.19322e-06
6.52489e-08
7.19163e-06
8.5839e-08
7.18873e-06
9.63643e-08
7.1872e-06
1.03931e-07
7.18763e-06
1.18116e-07
7.18946e-06
1.31801e-07
7.19232e-06
1.40258e-07
1.45653e-07
7.19648e-06
7.56111e-06
-5.54533e-08
7.56773e-06
-4.00516e-09
7.55979e-06
5.63492e-08
7.55957e-06
-6.54795e-08
7.56818e-06
1.83307e-08
7.56087e-06
1.57436e-08
7.56054e-06
-7.87303e-09
7.56119e-06
5.07337e-08
7.55084e-06
4.12297e-08
7.54698e-06
4.32188e-08
7.54542e-06
6.69914e-08
7.53885e-06
6.62355e-08
7.53429e-06
6.98065e-08
7.53274e-06
8.73926e-08
7.53078e-06
9.83235e-08
7.5295e-06
1.05213e-07
7.53008e-06
1.17537e-07
7.53216e-06
1.29719e-07
7.5353e-06
1.37113e-07
1.41306e-07
7.53965e-06
7.92203e-06
-5.16707e-08
7.92991e-06
-1.18865e-08
7.92283e-06
6.34333e-08
7.91983e-06
-6.24855e-08
7.92757e-06
1.05976e-08
7.91907e-06
2.42428e-08
7.91654e-06
-5.34494e-09
7.91836e-06
4.8911e-08
7.90883e-06
5.07593e-08
7.90364e-06
4.84086e-08
7.90247e-06
6.81637e-08
7.89707e-06
7.16357e-08
7.89215e-06
7.47223e-08
7.89038e-06
8.91621e-08
7.88922e-06
9.94912e-08
7.88831e-06
1.06114e-07
7.88913e-06
1.16718e-07
7.89143e-06
1.27418e-07
7.89481e-06
1.33736e-07
1.36791e-07
7.89933e-06
8.30029e-06
-4.72824e-08
8.30895e-06
-2.05427e-08
8.30316e-06
6.92219e-08
8.29768e-06
-5.70045e-08
8.30453e-06
3.74341e-09
8.29513e-06
3.36437e-08
8.28983e-06
-4.6544e-11
8.29238e-06
4.63694e-08
8.28427e-06
5.88675e-08
8.27786e-06
5.48126e-08
8.27658e-06
6.94469e-08
8.2724e-06
7.58164e-08
8.26754e-06
7.95821e-08
8.26547e-06
9.12341e-08
8.26479e-06
1.00164e-07
8.26439e-06
1.06518e-07
8.26553e-06
1.15577e-07
8.26807e-06
1.2488e-07
8.27164e-06
1.30168e-07
1.32143e-07
8.27629e-06
8.69674e-06
-4.23568e-08
8.70578e-06
-2.95911e-08
8.70132e-06
7.36879e-08
8.69391e-06
-4.96005e-08
8.69971e-06
-2.05627e-09
8.68994e-06
4.34157e-08
8.68165e-06
8.25045e-09
8.68413e-06
4.38843e-08
8.6778e-06
6.5203e-08
8.67051e-06
6.20932e-08
8.66869e-06
7.12728e-08
8.66557e-06
7.89382e-08
8.66117e-06
8.39834e-08
8.65888e-06
9.35148e-08
8.65839e-06
1.00661e-07
8.65851e-06
1.06393e-07
8.66005e-06
1.14042e-07
8.66287e-06
1.22059e-07
8.66662e-06
1.26414e-07
1.27396e-07
8.67137e-06
9.11225e-06
-3.69827e-08
9.12122e-06
-3.85621e-08
9.11826e-06
7.66471e-08
9.10889e-06
-4.023e-08
9.11383e-06
-7.00437e-09
9.10436e-06
5.28897e-08
9.0931e-06
1.95086e-08
9.09457e-06
4.24161e-08
9.09012e-06
6.96504e-08
9.08246e-06
6.97549e-08
9.07976e-06
7.39727e-08
9.07742e-06
8.12787e-08
9.07377e-06
8.76345e-08
9.07147e-06
9.58126e-08
9.07096e-06
1.0117e-07
9.07152e-06
1.05832e-07
9.07349e-06
1.12077e-07
9.07665e-06
1.18899e-07
9.08062e-06
1.22448e-07
1.22572e-07
9.08544e-06
9.54775e-06
-3.12689e-08
9.556e-06
-4.68189e-08
9.55473e-06
7.79165e-08
9.54349e-06
-2.89839e-08
9.54751e-06
-1.10291e-08
9.53899e-06
6.14073e-08
9.52519e-06
3.33115e-08
9.52482e-06
4.2791e-08
9.522e-06
7.24705e-08
9.51455e-06
7.72047e-08
9.51082e-06
7.77008e-08
9.5089e-06
8.32006e-08
9.50615e-06
9.03836e-08
9.50404e-06
9.79202e-08
9.5035e-06
1.01712e-07
9.50435e-06
1.04976e-07
9.50672e-06
1.09708e-07
9.51027e-06
1.15355e-07
9.5145e-06
1.1822e-07
1.17659e-07
9.51941e-06
1.00042e-05
-2.53378e-08
1.00113e-05
-5.3896e-08
1.00116e-05
7.75525e-08
9.9986e-06
-1.59365e-08
1.00013e-05
-1.37615e-08
9.99444e-06
6.82985e-08
9.97884e-06
4.89082e-08
9.97599e-06
4.56468e-08
9.9743e-06
7.41601e-08
9.96758e-06
8.3925e-08
9.96292e-06
8.23595e-08
9.96102e-06
8.51018e-08
9.95916e-06
9.22354e-08
9.95744e-06
9.96452e-08
9.95696e-06
1.02192e-07
9.95799e-06
1.03946e-07
9.96068e-06
1.07021e-07
9.96461e-06
1.11421e-07
9.96915e-06
1.13679e-07
1.12614e-07
9.97419e-06
1.04826e-05
-1.93276e-08
1.04883e-05
-5.95287e-08
1.04898e-05
7.60343e-08
1.04753e-05
-1.47037e-09
1.04761e-05
-1.45875e-08
1.04714e-05
7.30673e-08
1.0455e-05
6.53023e-08
1.04492e-05
5.14082e-08
1.0448e-05
7.53365e-08
1.04424e-05
8.96086e-08
1.04371e-05
8.76335e-08
1.04349e-05
8.73084e-08
1.04337e-05
9.33656e-08
1.04326e-05
1.00815e-07
1.04323e-05
1.02472e-07
1.04334e-05
1.02798e-07
1.04363e-05
1.04122e-07
1.04406e-05
1.0714e-07
1.04455e-05
1.08792e-07
1.07377e-07
1.04507e-05
1.09841e-05
-1.33999e-08
1.09882e-05
-6.36046e-08
1.09902e-05
7.40002e-08
1.09745e-05
1.42363e-08
1.09731e-05
-1.32046e-08
1.09705e-05
7.56737e-08
1.09544e-05
8.14387e-08
1.09458e-05
6.00094e-08
1.09443e-05
7.67717e-08
1.09398e-05
9.4142e-08
1.09343e-05
9.3122e-08
1.09316e-05
8.99999e-08
1.09309e-05
9.40737e-08
1.09304e-05
1.01309e-07
1.09305e-05
1.02422e-07
1.09318e-05
1.01513e-07
1.09348e-05
1.0109e-07
1.09393e-05
1.02591e-07
1.09446e-05
1.03554e-07
1.0189e-07
1.09501e-05
1.15097e-05
-7.71677e-09
1.15111e-05
-6.50263e-08
1.15146e-05
7.04863e-08
1.14976e-05
3.12534e-08
1.14932e-05
-8.81108e-09
1.14926e-05
7.62518e-08
1.14779e-05
9.61978e-08
1.14668e-05
7.10506e-08
1.14644e-05
7.92154e-08
1.14609e-05
9.76314e-08
1.14556e-05
9.8443e-08
1.14524e-05
9.31915e-08
1.14518e-05
9.46725e-08
1.1452e-05
1.01087e-07
1.14525e-05
1.01967e-07
1.1454e-05
1.00006e-07
1.14571e-05
9.7962e-08
1.14618e-05
9.78638e-08
1.14674e-05
9.8e-08
9.61102e-08
1.14732e-05
1.20605e-05
-2.42646e-09
1.20589e-05
-6.33737e-08
1.20634e-05
6.60094e-08
1.20461e-05
4.84911e-08
1.20381e-05
-8.08745e-10
1.20388e-05
7.56101e-08
1.20264e-05
1.08568e-07
1.20135e-05
8.39591e-08
1.20095e-05
8.31634e-08
1.20067e-05
1.00446e-07
1.20019e-05
1.03282e-07
1.19983e-05
9.67773e-08
1.19976e-05
9.53945e-08
1.19984e-05
1.00227e-07
1.19993e-05
1.01077e-07
1.20012e-05
9.81564e-08
1.20044e-05
9.47363e-08
1.20092e-05
9.30343e-08
1.2015e-05
9.219e-08
9.00232e-08
1.20211e-05
1.26378e-05
2.3636e-09
1.26329e-05
-5.84601e-08
1.26378e-05
6.11402e-08
1.26212e-05
6.50431e-08
1.26093e-05
1.10769e-08
1.26102e-05
7.47313e-08
1.26007e-05
1.18055e-07
1.25869e-05
9.78041e-08
1.25811e-05
8.89333e-08
1.25785e-05
1.03076e-07
1.25743e-05
1.07472e-07
1.25705e-05
1.00557e-07
1.25695e-05
9.63688e-08
1.25708e-05
9.8937e-08
1.25722e-05
9.97094e-08
1.25745e-05
9.58833e-08
1.25778e-05
9.13701e-08
1.25827e-05
8.81544e-08
1.25887e-05
8.61888e-08
8.36347e-08
1.25951e-05
1.32427e-05
6.59329e-09
1.32349e-05
-5.06302e-08
1.3239e-05
5.70282e-08
1.32239e-05
8.00964e-08
1.32087e-05
2.62957e-08
1.32086e-05
7.48848e-08
1.32018e-05
1.24859e-07
1.31881e-05
1.11416e-07
1.31804e-05
9.66722e-08
1.31775e-05
1.06012e-07
1.31739e-05
1.11062e-07
1.31702e-05
1.04284e-07
1.31689e-05
9.76377e-08
1.31703e-05
9.75263e-08
1.31723e-05
9.77443e-08
1.31749e-05
9.32104e-08
1.31786e-05
8.7749e-08
1.31835e-05
8.32573e-08
1.31896e-05
8.00474e-08
7.69523e-08
1.31963e-05
1.38765e-05
1.02799e-08
1.38659e-05
-4.00241e-08
1.38687e-05
5.42029e-08
1.38555e-05
9.32793e-08
1.38379e-05
4.39364e-08
1.38356e-05
7.71989e-08
1.38308e-05
1.29605e-07
1.38183e-05
1.23954e-07
1.38088e-05
1.06109e-07
1.38051e-05
1.09752e-07
1.38019e-05
1.14256e-07
1.37984e-05
1.07769e-07
1.37969e-05
9.91545e-08
1.37982e-05
9.6259e-08
1.38007e-05
9.51631e-08
1.38038e-05
9.01801e-08
1.38078e-05
8.37145e-08
1.38127e-05
7.83356e-08
1.3819e-05
7.38322e-08
6.99233e-08
1.3826e-05
1.45404e-05
1.35155e-08
1.45275e-05
-2.70728e-08
1.45285e-05
5.31325e-08
1.45173e-05
1.04572e-07
1.44982e-05
6.29955e-08
1.4493e-05
8.24167e-08
1.44894e-05
1.33184e-07
1.44783e-05
1.35075e-07
1.44677e-05
1.16646e-07
1.44628e-05
1.14673e-07
1.44597e-05
1.17378e-07
1.44565e-05
1.10978e-07
1.44548e-05
1.00814e-07
1.44558e-05
9.52558e-08
1.44588e-05
9.22008e-08
1.44622e-05
8.67329e-08
1.44667e-05
7.92433e-08
1.44719e-05
7.3156e-08
1.4478e-05
6.77043e-08
6.23903e-08
1.44856e-05
1.5236e-05
1.64392e-08
1.52217e-05
-1.27681e-08
1.52198e-05
5.49603e-08
1.52105e-05
1.13936e-07
1.51909e-05
8.25316e-08
1.51825e-05
9.08241e-08
1.51791e-05
1.36553e-07
1.51694e-05
1.44831e-07
1.51583e-05
1.27702e-07
1.51521e-05
1.2089e-07
1.51487e-05
1.20793e-07
1.51457e-05
1.14019e-07
1.51439e-05
1.02557e-07
1.51447e-05
9.45141e-08
1.51477e-05
8.92072e-08
1.51516e-05
8.27587e-08
1.51563e-05
7.45547e-08
1.51621e-05
6.73426e-08
1.51684e-05
6.14271e-08
5.47389e-08
1.51761e-05
1.59646e-05
1.92081e-08
1.59492e-05
2.61655e-09
1.59447e-05
5.94221e-08
1.59366e-05
1.22085e-07
1.59172e-05
1.01889e-07
1.59059e-05
1.02098e-07
1.59018e-05
1.4071e-07
1.58931e-05
1.53521e-07
1.58819e-05
1.38892e-07
1.58745e-05
1.28334e-07
1.58704e-05
1.24855e-07
1.58673e-05
1.17063e-07
1.58655e-05
1.04443e-07
1.5866e-05
9.40055e-08
1.58688e-05
8.64027e-08
1.58731e-05
7.84318e-08
1.58781e-05
6.95252e-08
1.58844e-05
6.1121e-08
1.58918e-05
5.39691e-08
4.79445e-08
1.58986e-05
1.67279e-05
2.1933e-08
1.67119e-05
1.86156e-08
1.67049e-05
6.64498e-08
1.66972e-05
1.29729e-07
1.66785e-05
1.20582e-07
1.66648e-05
1.15849e-07
1.66591e-05
1.46408e-07
1.66509e-05
1.61646e-07
1.66398e-05
1.50011e-07
1.66313e-05
1.36884e-07
1.66263e-05
1.29841e-07
1.6623e-05
1.20373e-07
1.66209e-05
1.06544e-07
1.6621e-05
9.38518e-08
1.66236e-05
8.38703e-08
1.6628e-05
7.39844e-08
1.66335e-05
6.39932e-08
1.66402e-05
5.44105e-08
1.6648e-05
4.62444e-08
4.01401e-08
1.66558e-05
1.75276e-05
2.47222e-08
1.7512e-05
3.41736e-08
1.75019e-05
7.65239e-08
1.74941e-05
1.37525e-07
1.74763e-05
1.38395e-07
1.74606e-05
1.31565e-07
1.74528e-05
1.54225e-07
1.74447e-05
1.69784e-07
1.74336e-05
1.61063e-07
1.7424e-05
1.46444e-07
1.74179e-05
1.35961e-07
1.7414e-05
1.24276e-07
1.74116e-05
1.08949e-07
1.74112e-05
9.42897e-08
1.74134e-05
8.16432e-08
1.74179e-05
6.95335e-08
1.74238e-05
5.80167e-08
1.7431e-05
4.72416e-08
1.74392e-05
3.8095e-08
3.11372e-08
1.74482e-05
1.83654e-05
2.76673e-08
1.83501e-05
4.94493e-08
1.83378e-05
8.88073e-08
1.83293e-05
1.46094e-07
1.83122e-05
1.55455e-07
1.82951e-05
1.48676e-07
1.82849e-05
1.64445e-07
1.82761e-05
1.78563e-07
1.82649e-05
1.72264e-07
1.82544e-05
1.56976e-07
1.82469e-05
1.43441e-07
1.8242e-05
1.29129e-07
1.82391e-05
1.11913e-07
1.82379e-05
9.54825e-08
1.82397e-05
7.98354e-08
1.8244e-05
6.51939e-08
1.82503e-05
5.17519e-08
1.8258e-05
3.95176e-08
1.82669e-05
2.91697e-08
2.12124e-08
1.82769e-05
1.92432e-05
3.085e-08
1.92284e-05
6.42114e-08
1.92144e-05
1.02864e-07
1.92046e-05
1.5592e-07
1.91881e-05
1.71908e-07
1.91698e-05
1.6698e-07
1.91572e-05
1.77074e-07
1.91472e-05
1.88559e-07
1.91355e-05
1.83961e-07
1.91239e-05
1.68567e-07
1.91148e-05
1.52503e-07
1.91086e-05
1.35337e-07
1.91047e-05
1.15871e-07