/*--------------------------------*- C++ -*----------------------------------*\
| =========                 |                                                 |
| \\      /  F ield         | OpenFOAM: The Open Source CFD Toolbox           |
|  \\    /   O peration     | Version:  v2012                                 |
|   \\  /    A nd           | Website:  www.openfoam.com                      |
|    \\/     M anipulation  |                                                 |
\*---------------------------------------------------------------------------*/
FoamFile
{
    version     2.0;
    format      ascii;
    class       volScalarField;
    location    "2.65";
    object      p;
}
// * * * * * * * * * * * * * * * * * * * * * * * * * * * * * * * * * * * * * //

dimensions      [0 2 -2 0 0 0 0];


internalField   nonuniform List<scalar> 
17600
(
8.05149e-11
-0.00222908
-0.00307771
-0.0032295
-0.00402218
-0.00395893
-0.00496437
-0.00498688
-0.00536535
-0.00566305
-0.00639405
-0.00650288
-0.00672313
-0.0066957
-0.00661152
-0.00607597
-0.00539164
-0.00395067
-0.00205187
0.00154243
6.0378e-07
-0.00223197
-0.00307619
-0.0032351
-0.00402147
-0.00396046
-0.00496274
-0.00498901
-0.00535873
-0.00567099
-0.00639103
-0.00650751
-0.00671977
-0.00670352
-0.00660713
-0.00609378
-0.00538378
-0.00400277
-0.00204015
0.00125497
-9.39962e-09
-0.002236
-0.00307294
-0.00323984
-0.00401986
-0.00396274
-0.00496057
-0.00499235
-0.00535275
-0.00568056
-0.00638638
-0.00651445
-0.00671487
-0.00671466
-0.00660167
-0.00611645
-0.00537549
-0.00406362
-0.00204283
0.000853005
-2.78821e-06
-0.00224048
-0.00306878
-0.0032433
-0.00401762
-0.00396512
-0.0049587
-0.00499617
-0.00534635
-0.00569065
-0.00638185
-0.0065221
-0.00671035
-0.0067266
-0.0065973
-0.00613984
-0.00537044
-0.00412362
-0.00207538
0.000456206
-7.6795e-06
-0.00224557
-0.00306377
-0.00324541
-0.00401484
-0.00396784
-0.00495716
-0.00500055
-0.00533946
-0.00570153
-0.00637733
-0.00653051
-0.00670573
-0.00673962
-0.00659284
-0.00616498
-0.00536737
-0.00418572
-0.00213927
8.08599e-05
-1.44176e-05
-0.00225132
-0.0030578
-0.00324611
-0.0040117
-0.00397115
-0.00495582
-0.00500551
-0.00533211
-0.0057132
-0.00637263
-0.00653964
-0.00670064
-0.00675381
-0.006588
-0.00619223
-0.00536675
-0.00425168
-0.0022329
-0.000270781
-2.26373e-05
-0.00225761
-0.00305092
-0.00324551
-0.00400837
-0.00397509
-0.00495451
-0.00501093
-0.00532437
-0.00572547
-0.00636778
-0.00654935
-0.00669528
-0.00676903
-0.00658348
-0.00622109
-0.00537081
-0.00432135
-0.00235438
-0.000602929
-3.19204e-05
-0.00226431
-0.00304325
-0.00324383
-0.00400493
-0.00397956
-0.00495308
-0.00501676
-0.00531629
-0.00573824
-0.00636291
-0.00655962
-0.00668991
-0.00678513
-0.00658017
-0.00625066
-0.00538217
-0.00439352
-0.0025022
-0.000921909
-4.19112e-05
-0.00227137
-0.00303487
-0.00324128
-0.00400138
-0.00398449
-0.00495143
-0.00502294
-0.00530789
-0.00575148
-0.00635812
-0.00657046
-0.00668475
-0.00680192
-0.00657887
-0.00628006
-0.00540309
-0.00446737
-0.00267463
-0.00123412
-5.23857e-05
-0.00227873
-0.00302589
-0.0032381
-0.00399769
-0.00398979
-0.00494952
-0.00502946
-0.00529921
-0.00576514
-0.00635352
-0.00658235
-0.00668007
-0.00681904
-0.0065805
-0.00630854
-0.00543521
-0.00454306
-0.00286905
-0.00154519
-6.32384e-05
-0.00228639
-0.00301637
-0.00323445
-0.00399385
-0.00399543
-0.00494739
-0.00503629
-0.00529028
-0.00577916
-0.00634919
-0.00659413
-0.00667627
-0.00683594
-0.00658608
-0.00633561
-0.00547956
-0.00462189
-0.00308179
-0.00185942
-7.44288e-05
-0.00229434
-0.00300639
-0.00323044
-0.00398983
-0.00400137
-0.00494503
-0.00504339
-0.00528113
-0.00579345
-0.00634529
-0.00660594
-0.00667385
-0.00685199
-0.00659662
-0.00636113
-0.00553645
-0.00470636
-0.00330857
-0.0021795
-8.59366e-05
-0.00230254
-0.00299602
-0.00322611
-0.00398566
-0.00400758
-0.00494249
-0.00505068
-0.00527185
-0.00580784
-0.00634205
-0.0066175
-0.00667337
-0.00686665
-0.00661287
-0.0063856
-0.00560535
-0.0047996
-0.00354525
-0.00250651
-9.77422e-05
-0.00231097
-0.0029853
-0.00322145
-0.00398136
-0.00401401
-0.0049398
-0.00505808
-0.00526257
-0.00582214
-0.00633975
-0.00662859
-0.00667541
-0.00687956
-0.00663527
-0.00641028
-0.00568498
-0.00490464
-0.00378868
-0.00284032
-0.000109826
-0.00231959
-0.0029743
-0.00321645
-0.00397697
-0.00402061
-0.00493702
-0.00506548
-0.00525345
-0.00583609
-0.00633869
-0.00663819
-0.00668048
-0.00689064
-0.00666381
-0.00643717
-0.00577364
-0.00502376
-0.00403702
-0.0031799
-0.000122175
-0.00232835
-0.00296308
-0.00321105
-0.00397256
-0.00402731
-0.00493423
-0.00507272
-0.00524471
-0.00584941
-0.00633924
-0.00664633
-0.00668893
-0.00690023
-0.00669798
-0.00646856
-0.00587001
-0.00515844
-0.00428943
-0.00352361
-0.000134785
-0.00233718
-0.00295172
-0.00320516
-0.00396823
-0.00403402
-0.00493154
-0.0050796
-0.00523656
-0.00586179
-0.00634177
-0.00665274
-0.00670082
-0.00690925
-0.0067369
-0.00650653
-0.00597352
-0.00530926
-0.0045456
-0.00386944
-0.000147666
-0.002346
-0.00294028
-0.0031987
-0.0039641
-0.0040406
-0.00492909
-0.00508591
-0.00522923
-0.00587298
-0.00634649
-0.00665747
-0.00671584
-0.00691908
-0.00677977
-0.00655267
-0.00608423
-0.00547585
-0.0048058
-0.00421519
-0.000160837
-0.00235471
-0.00292887
-0.00319154
-0.00396032
-0.00404686
-0.00492708
-0.00509144
-0.00522291
-0.00588286
-0.00635347
-0.0066609
-0.00673324
-0.00693112
-0.00682635
-0.0066083
-0.00620259
-0.00565737
-0.00507068
-0.00455862
-0.000174336
-0.00236319
-0.00291759
-0.00318353
-0.00395703
-0.00405259
-0.0049257
-0.00509607
-0.00521769
-0.00589138
-0.00636261
-0.0066638
-0.00675206
-0.00694611
-0.00687682
-0.00667457
-0.00632946
-0.00585302
-0.00534135
-0.00489806
-0.000188213
-0.00237126
-0.00290657
-0.00317448
-0.00395447
-0.0040576
-0.00492505
-0.00509984
-0.00521367
-0.00589862
-0.00637347
-0.00666711
-0.00677176
-0.0069644
-0.00693155
-0.0067523
-0.00646603
-0.0060623
-0.00561913
-0.00523297
-0.000202522
-0.00237874
-0.00289598
-0.00316416
-0.00395285
-0.00406178
-0.00492514
-0.00510281
-0.00521244
-0.00590489
-0.00638524
-0.00667155
-0.00679229
-0.00698624
-0.00699127
-0.00684208
-0.0066136
-0.00628486
-0.00590514
-0.0055642
-0.00021736
-0.00238532
-0.00288605
-0.00315235
-0.00395234
-0.00406505
-0.00492599
-0.00510503
-0.0052099
-0.00591077
-0.00639707
-0.0066773
-0.00681377
-0.00701151
-0.00705682
-0.00694452
-0.00677365
-0.00652051
-0.0062003
-0.00589401
-0.000232909
-0.00239064
-0.00287698
-0.00313882
-0.00395309
-0.00406726
-0.00492753
-0.00510694
-0.00520728
-0.00591733
-0.00640811
-0.00668428
-0.00683655
-0.00703974
-0.00712823
-0.00706016
-0.00694775
-0.0067699
-0.00650626
-0.0062259
-0.000249249
-0.0023944
-0.00286895
-0.00312346
-0.00395518
-0.00406866
-0.00492932
-0.00510933
-0.00520338
-0.00592583
-0.0064177
-0.00669244
-0.00686112
-0.0070711
-0.00720454
-0.00718865
-0.00713584
-0.00703379
-0.00682887
-0.00656428
-0.000266544
-0.00239613
-0.00286215
-0.00310617
-0.00395865
-0.00406942
-0.0049308
-0.0051129
-0.00519768
-0.00593613
-0.00642596
-0.00670103
-0.00688865
-0.00710662
-0.00728451
-0.00732779
-0.00733305
-0.00730974
-0.00717838
-0.00691751
-0.000285233
-0.0023952
-0.00285673
-0.00308668
-0.0039636
-0.00406958
-0.00493135
-0.00511823
-0.00519035
-0.00594677
-0.00643562
-0.00670783
-0.00691997
-0.00714789
-0.00736827
-0.00747649
-0.00753965
-0.00758585
-0.00753157
-0.00732566
-0.000305462
-0.00239113
-0.00285275
-0.00306143
-0.00396959
-0.00407036
-0.00492968
-0.00512625
-0.00518078
-0.00595736
-0.0064478
-0.00671307
-0.00695447
-0.0071967
-0.00745765
-0.00763849
-0.00775991
-0.00786817
-0.00789213
-0.00773959
-0.000327485
-0.00238345
-0.00285026
-0.00303844
-0.00397571
-0.00407341
-0.00492462
-0.00513754
-0.00516866
-0.00596731
-0.00646358
-0.0067174
-0.0069924
-0.00725818
-0.00755539
-0.00781042
-0.00799498
-0.00816041
-0.00825569
-0.00815277
-0.000351801
-0.0023716
-0.00284897
-0.00301435
-0.00398114
-0.00407971
-0.00491558
-0.00515212
-0.00515566
-0.00597532
-0.00648555
-0.00672468
-0.00703587
-0.0073329
-0.00766049
-0.00798686
-0.00824384
-0.0084643
-0.00861791
-0.00855939
-0.000378635
-0.00235525
-0.00284827
-0.00298991
-0.00398488
-0.00408992
-0.00490266
-0.00516963
-0.00514433
-0.0059808
-0.00651671
-0.00673788
-0.00708392
-0.00742008
-0.00777188
-0.00816345
-0.00850271
-0.00878041
-0.00897979
-0.00895497
-0.000408207
-0.00233429
-0.00284744
-0.00296591
-0.00398607
-0.00410441
-0.00488671
-0.00518972
-0.00513351
-0.00598428
-0.00655683
-0.00675732
-0.00713319
-0.00751852
-0.00789126
-0.00833788
-0.00876588
-0.00910739
-0.00934314
-0.00933892
-0.000440655
-0.00230876
-0.00284533
-0.00294294
-0.00398437
-0.00412345
-0.00486919
-0.00521262
-0.00513482
-0.00598622
-0.00660328
-0.00678242
-0.00718022
-0.00762573
-0.00802143
-0.00851034
-0.00902714
-0.00944126
-0.00970913
-0.00971372
-0.000475988
-0.0022791
-0.00284052
-0.00292129
-0.00397975
-0.00414697
-0.00485246
-0.00523914
-0.00514601
-0.00598608
-0.00665267
-0.00681442
-0.00722277
-0.0077375
-0.00816507
-0.00868377
-0.00928163
-0.00977671
-0.0100789
-0.0100833
-0.00051413
-0.00224603
-0.00283325
-0.00290087
-0.00397262
-0.004175
-0.00483927
-0.0052699
-0.00516647
-0.00598236
-0.00670321
-0.00685532
-0.00726078
-0.00784908
-0.00832383
-0.00886325
-0.00952755
-0.0101084
-0.0104519
-0.010451
-0.000554733
-0.00221042
-0.00281953
-0.00288093
-0.00396403
-0.00420574
-0.00483156
-0.00530454
-0.00519462
-0.00597415
-0.00675247
-0.00690683
-0.00729653
-0.00795661
-0.00849635
-0.00905407
-0.00976675
-0.0104311
-0.0108245
-0.0108181
-0.000597268
-0.00217331
-0.00280067
-0.00286062
-0.0039552
-0.00424658
-0.00483027
-0.00534126
-0.00523015
-0.00596188
-0.00679823
-0.00697027
-0.00733403
-0.00805726
-0.00867823
-0.00925948
-0.0100033
-0.0107412
-0.0111914
-0.0111835
-0.000641182
-0.00213564
-0.00277732
-0.00283956
-0.0039467
-0.00429532
-0.00483492
-0.00537785
-0.0052732
-0.00594707
-0.00683811
-0.00704612
-0.00737807
-0.00814918
-0.00886326
-0.00947975
-0.0102411
-0.0110372
-0.0115472
-0.0115451
-0.000685681
-0.00209836
-0.00275084
-0.00281789
-0.00393845
-0.00435132
-0.00484514
-0.00541249
-0.00532427
-0.00593235
-0.00687002
-0.00713328
-0.00743352
-0.00823246
-0.00904482
-0.00971245
-0.010484
-0.0113202
-0.0118875
-0.0118993
-0.000729754
-0.00206228
-0.00272307
-0.00279602
-0.00392954
-0.00441336
-0.00486268
-0.00544395
-0.00538345
-0.00592123
-0.0068921
-0.00722844
-0.00750466
-0.00830982
-0.00921685
-0.00995249
-0.0107345
-0.0115931
-0.0122094
-0.012242
-0.000772533
-0.00202792
-0.00269615
-0.00277496
-0.00391887
-0.00447995
-0.00488588
-0.00547145
-0.0054496
-0.00591743
-0.00690313
-0.00732635
-0.00759398
-0.00838632
-0.00937516
-0.0101929
-0.0109926
-0.0118595
-0.0125127
-0.0125695
-0.000813422
-0.00199542
-0.0026719
-0.00275639
-0.00390603
-0.00454962
-0.00491678
-0.0054943
-0.00552061
-0.00592425
-0.00690418
-0.00742106
-0.00770096
-0.00846832
-0.00951902
-0.0104267
-0.0112554
-0.0121227
-0.0127989
-0.0128793
-0.000852042
-0.00196412
-0.00265167
-0.00274263
-0.00389115
-0.00462105
-0.00495557
-0.00551176
-0.00559373
-0.00594427
-0.00689859
-0.00750702
-0.00782144
-0.00856127
-0.00965146
-0.010648
-0.011518
-0.012384
-0.0130705
-0.0131699
-0.000888145
-0.00193324
-0.00263651
-0.00273629
-0.00387467
-0.00469271
-0.00500243
-0.00552349
-0.00566597
-0.00597917
-0.00689095
-0.0075802
-0.00794906
-0.00866767
-0.00977779
-0.0108541
-0.0117747
-0.0126427
-0.0133295
-0.0134407
-0.000921516
-0.00190234
-0.00262713
-0.00273976
-0.00385757
-0.00476287
-0.00505755
-0.00552981
-0.0057338
-0.0060293
-0.0068866
-0.00763881
-0.00807674
-0.00878629
-0.00990276
-0.0110446
-0.0120208
-0.012896
-0.0135768
-0.0136923
-0.000952216
-0.00187138
-0.00262391
-0.00275486
-0.00384113
-0.00482968
-0.00512135
-0.00553266
-0.00579247
-0.00609224
-0.00689109
-0.00768402
-0.00819782
-0.00891342
-0.0100291
-0.011221
-0.0122524
-0.0131405
-0.0138122
-0.0139252
-0.000980851
-0.00184024
-0.00262675
-0.00278247
-0.00382633
-0.00489101
-0.00519473
-0.00553579
-0.00583745
-0.00616252
-0.00690906
-0.00772008
-0.00830721
-0.00904366
-0.0101571
-0.0113854
-0.0124674
-0.0133724
-0.0140346
-0.0141397
-0.0010088
-0.00181069
-0.00263447
-0.00282233
-0.00381408
-0.00494494
-0.00527817
-0.00554392
-0.00586691
-0.00623333
-0.00694203
-0.00775309
-0.0084025
-0.00917056
-0.0102852
-0.0115392
-0.0126651
-0.0135891
-0.0142421
-0.0143355
-0.00103716
-0.00178454
-0.00264645
-0.00287417
-0.00380467
-0.00498951
-0.00537056
-0.00556232
-0.00588243
-0.00629719
-0.0069871
-0.00778854
-0.00848442
-0.00928803
-0.0104092
-0.0116831
-0.012846
-0.0137891
-0.0144337
-0.0145121
-0.00106649
-0.00176116
-0.00266309
-0.00293822
-0.0038
-0.00502634
-0.0054695
-0.00559604
-0.00588817
-0.00634728
-0.00703834
-0.00782951
-0.0085561
-0.00939187
-0.0105238
-0.0118154
-0.0130104
-0.0139722
-0.0146087
-0.0146692
-0.00109863
-0.00174206
-0.00268178
-0.00301406
-0.00380267
-0.00504708
-0.00557109
-0.00564894
-0.00588987
-0.00637918
-0.00708822
-0.00787563
-0.00862126
-0.00948071
-0.0106234
-0.0119326
-0.0131576
-0.014138
-0.014767
-0.0148069
-0.00113596
-0.00172863
-0.00270011
-0.00310055
-0.00381654
-0.00505537
-0.00566995
-0.00572231
-0.00589439
-0.00639191
-0.00712865
-0.00792351
-0.00868237
-0.00955541
-0.0107044
-0.0120302
-0.0132845
-0.0142852
-0.0149084
-0.0149259
-0.00117968
-0.00172246
-0.00271743
-0.00319606
-0.00384529
-0.00505331
-0.00575981
-0.00581409
-0.00590927
-0.00638803
-0.00715208
-0.00796704
-0.00873939
-0.0096176
-0.0107651
-0.012103
-0.0133858
-0.0144105
-0.0150319
-0.0150271
-0.00123
-0.00172523
-0.0027349
-0.00329872
-0.00389191
-0.00504483
-0.00583444
-0.0059186
-0.00594094
-0.00637341
-0.00715293
-0.00799802
-0.00878922
-0.00966818
-0.0108054
-0.0121468
-0.0134552
-0.0145079
-0.0151341
-0.0151107
-0.00128743
-0.00173877
-0.00275334
-0.0034063
-0.00395902
-0.00503538
-0.00588917
-0.00602787
-0.00599275
-0.0063558
-0.00712923
-0.00800762
-0.00882571
-0.00970584
-0.0108253
-0.0121592
-0.0134869
-0.0145685
-0.0152089
-0.0151744
-0.00135358
-0.00176507
-0.00277319
-0.00351611
-0.00404823
-0.00503184
-0.00592303
-0.00613316
-0.00606332
-0.00634286
-0.00708355
-0.00798816
-0.00884058
-0.00972629
-0.0108237
-0.0121393
-0.0134768
-0.0145853
-0.0152475
-0.0152119
-0.00142962
-0.00180551
-0.00279714
-0.00362584
-0.00415854
-0.00504119
-0.00593865
-0.00622551
-0.0061465
-0.00634021
-0.00702204
-0.00793523
-0.0088246
-0.00972235
-0.0107975
-0.0120859
-0.0134216
-0.0145527
-0.0152398
-0.0152142
-0.00151632
-0.0018621
-0.00282888
-0.00373349
-0.00428655
-0.00506969
-0.00594219
-0.00629861
-0.00623371
-0.00634945
-0.00695105
-0.00784876
-0.00876873
-0.00968413
-0.0107403
-0.0119959
-0.0133182
-0.0144656
-0.0151793
-0.0151713
-0.00161485
-0.00193714
-0.00287159
-0.00383848
-0.00442845
-0.00512159
-0.00594104
-0.0063503
-0.00631628
-0.00636751
-0.00687473
-0.0077313
-0.00866619
-0.00960051
-0.0106428
-0.0118636
-0.0131643
-0.0143196
-0.0150595
-0.015076
-0.00172657
-0.00203146
-0.00293046
-0.00394212
-0.00458024
-0.00519876
-0.00594323
-0.00638179
-0.00638641
-0.0063888
-0.00679479
-0.0075847
-0.00851301
-0.00946096
-0.0104932
-0.0116801
-0.012953
-0.0141084
-0.0148728
-0.0149202
-0.00185315
-0.00214613
-0.00300881
-0.00404726
-0.00473838
-0.00530074
-0.00595667
-0.00639664
-0.00643811
-0.00640687
-0.00671102
-0.00741138
-0.00830689
-0.00925572
-0.0102774
-0.0114311
-0.0126721
-0.0138206
-0.0146075
-0.0146953
-0.00199659
-0.00228219
-0.00311037
-0.00415796
-0.00490066
-0.00542561
-0.0059874
-0.00640103
-0.00646888
-0.00641524
-0.0066216
-0.0072135
-0.00804704
-0.00897501
-0.00997785
-0.0110968
-0.0123016
-0.0134374
-0.0142401
-0.014365
-0.00215942
-0.00244042
-0.00323803
-0.00427893
-0.00506547
-0.00557062
-0.00604034
-0.00640336
-0.0064809
-0.00640979
-0.006524
-0.00699161
-0.00773231
-0.00860843
-0.00957433
-0.0106507
-0.0118118
-0.0129241
-0.0137374
-0.0139044
-0.00234495
-0.00262238
-0.00339354
-0.00441479
-0.00523326
-0.00573095
-0.00611873
-0.00641335
-0.00648067
-0.00639196
-0.00641699
-0.0067459
-0.00735846
-0.00814356
-0.00904288
-0.0100566
-0.0111627
-0.0122394
-0.0130611
-0.0132812
-0.00255934
-0.00283067
-0.00357697
-0.00457004
-0.00540602
-0.00590301
-0.00622171
-0.00643932
-0.00647801
-0.00636903
-0.00630708
-0.00647985
-0.00692301
-0.00756587
-0.00835316
-0.00926542
-0.0102868
-0.0113212
-0.0121554
-0.0124492
-0.00281035
-0.00307003
-0.00378762
-0.00474746
-0.00558692
-0.0060841
-0.00634631
-0.00648748
-0.0064836
-0.00634993
-0.006214
-0.00621394
-0.0064348
-0.00686372
-0.00746027
-0.00820618
-0.00909176
-0.010056
-0.0109151
-0.0113316
-0.00310045
-0.00334886
-0.00402552
-0.0049525
-0.00578038
-0.00627087
-0.00648906
-0.00656208
-0.00650827
-0.0063407
-0.00615001
-0.00600916
-0.00594962
-0.00603388
-0.00629233
-0.00674589
-0.00739804
-0.00822445
-0.00913281
-0.00978819
-0.00341875
-0.00365601
-0.00431769
-0.00519988
-0.00599056
-0.00646059
-0.00664405
-0.00666404
-0.00656845
-0.00634893
-0.00610693
-0.00591286
-0.00567896
-0.00529587
-0.00480564
-0.00441177
-0.00436164
-0.00477723
-0.00556376
-0.00647719
-0.00376689
-0.00400364
-0.0046673
-0.00549162
-0.00621687
-0.00665061
-0.00680226
-0.00678906
-0.00667339
-0.00642226
-0.0060457
-0.00573593
-0.00569096
-0.00553876
-0.0046715
-0.00326712
-0.00196776
-0.00109275
-0.000548049
-0.00028292
-0.00418524
-0.00441783
-0.00504436
-0.00580374
-0.00645068
-0.00683368
-0.00695372
-0.00691246
-0.00678011
-0.00659677
-0.00610135
-0.00492571
-0.00356247
-0.00239715
-0.00146333
-0.000584007
0.000356097
0.00129759
0.00202121
0.00219563
-0.00469663
-0.00490307
-0.00544945
-0.00611871
-0.00667486
-0.00698897
-0.00706859
-0.00699714
-0.00656998
-0.00552911
-0.00430539
-0.0032094
-0.00233538
-0.00156956
-0.000745384
0.000222337
0.00129496
0.00233015
0.00307962
0.00318115
-0.00530093
-0.00545775
-0.00591287
-0.00642878
-0.00681453
-0.00705105
-0.00691502
-0.00620017
-0.00529832
-0.00444063
-0.00368005
-0.00295507
-0.00213602
-0.00118213
-9.839e-05
0.00107989
0.00228324
0.00336617
0.00409319
0.00411901
-0.00602067
-0.00608961
-0.00643922
-0.00673025
-0.00665523
-0.00634236
-0.00591874
-0.00541445
-0.0048653
-0.00427412
-0.00357791
-0.00272695
-0.00170859
-0.000562838
0.000672246
0.00194867
0.00318992
0.00425752
0.00492804
0.00486738
-0.00686264
-0.00694405
-0.00671433
-0.00641534
-0.00610466
-0.0058
-0.00549525
-0.00514211
-0.00466778
-0.00403617
-0.003231
-0.00226446
-0.00116524
4.92035e-05
0.00134403
0.00266121
0.00390786
0.00494318
0.00554911
0.00539988
-0.00754144
-0.00745901
-0.00694603
-0.00632827
-0.00583626
-0.00548561
-0.00518514
-0.00483337
-0.00434116
-0.00366851
-0.00282108
-0.00181961
-0.000682878
0.000563031
0.00187717
0.00319708
0.00442857
0.00542877
0.00598102
0.00576453
-0.00805323
-0.00786556
-0.00722389
-0.00642252
-0.0057295
-0.00523114
-0.0048553
-0.00446673
-0.00396233
-0.00329109
-0.0024433
-0.00143174
-0.000280987
0.000976089
0.00229511
0.00361127
0.00482814
0.00580119
0.00631419
0.00604928
-0.00847963
-0.00821931
-0.00746897
-0.00652391
-0.00566447
-0.00502026
-0.00454724
-0.00411897
-0.00361427
-0.00295581
-0.00211657
-0.00110594
4.96425e-05
0.00131243
0.00263355
0.00394511
0.00514903
0.00610026
0.00658326
0.00628222
-0.0088254
-0.00850932
-0.00767179
-0.00661361
-0.00562561
-0.00486295
-0.00430497
-0.00383417
-0.00331978
-0.00267148
-0.00184666
-0.00084364
0.000312257
0.00157828
0.00290038
0.00420748
0.00540034
0.00633434
0.00679508
0.00646825
-0.00908481
-0.00873297
-0.00782853
-0.00669074
-0.00561722
-0.00476976
-0.00414279
-0.0036265
-0.00308795
-0.00242869
-0.00160169
-0.000601988
0.000548261
0.00180987
0.00312674
0.00442557
0.00560618
0.00652555
0.00696969
0.00662462
-0.00924344
-0.00887956
-0.00794808
-0.0067713
-0.00565324
-0.00476112
-0.00409068
-0.00353732
-0.0029713
-0.00229215
-0.00144624
-0.000428339
0.000735573
0.00200158
0.0033151
0.00460617
0.00577177
0.00667992
0.00711587
0.00676482
0.00554554
0.00085265
-0.00633108
-0.0114597
-0.0124914
-0.0111929
-0.00967309
-0.00862978
-0.00803121
-0.00771522
-0.00756665
-0.0075229
-0.00754815
-0.00761439
-0.00769745
-0.00778132
-0.00785953
-0.00793097
-0.00799585
-0.00805475
-0.00810918
-0.0081619
-0.00821588
-0.00827221
-0.00833007
-0.00838899
-0.0084504
-0.00851563
-0.00858423
-0.00865462
-0.00872569
-0.00879724
-0.00886918
-0.00894098
-0.00901204
-0.00908204
-0.00915095
-0.00921885
-0.00928591
-0.0093522
-0.00941758
-0.00948176
-0.00954446
-0.0096058
-0.00966601
-0.0097253
-0.00978337
-0.00983975
-0.00989439
-0.00994773
-0.0100001
-0.0100516
-0.0101016
-0.0101502
-0.0101977
-0.0102446
-0.010291
-0.0103367
-0.0103813
-0.0104248
-0.0104676
-0.01051
-0.0105518
-0.0105928
-0.0106329
-0.0106722
-0.0107109
-0.010749
-0.0107865
-0.0108235
-0.01086
-0.0108959
-0.0109313
-0.0109662
-0.0110008
-0.0110352
-0.0110694
-0.0111033
-0.0111369
-0.0111704
-0.0112036
-0.0112367
-0.0112695
-0.0113021
-0.0113343
-0.0113663
-0.0113979
-0.0114292
-0.0114601
-0.0114909
-0.0115215
-0.0115518
-0.0115819
-0.0116117
-0.0116411
-0.0116703
-0.0116993
-0.0117278
-0.0117558
-0.0117832
-0.0118104
-0.0118373
-0.0118641
-0.0118905
-0.011917
-0.0119433
-0.0119697
-0.0119958
-0.012022
-0.0120479
-0.0120737
-0.0120993
-0.0121248
-0.0121503
-0.0121757
-0.0122012
-0.0122264
-0.0122517
-0.0122767
-0.0123017
-0.0123263
-0.0123506
-0.0123747
-0.0123983
-0.0124219
-0.0124452
-0.0124687
-0.0124917
-0.0125148
-0.0125371
-0.0125595
-0.0125812
-0.0126028
-0.012624
-0.012645
-0.012666
-0.0126866
-0.0127074
-0.0127272
-0.0127471
-0.0127659
-0.0127851
-0.0128036
-0.0128223
-0.0128407
-0.0128588
-0.0128769
-0.0128938
-0.0129112
-0.0129274
-0.0129444
-0.0129604
-0.0129771
-0.0129926
-0.0130077
-0.0130224
-0.0130367
-0.0130514
-0.0130646
-0.0130784
-0.0130906
-0.013103
-0.0131143
-0.0131249
-0.0131358
-0.0131449
-0.013155
-0.0131621
-0.0131704
-0.0131764
-0.0131831
-0.0131885
-0.0131921
-0.0131966
-0.0131974
-0.0132006
-0.0131998
-0.0132003
-0.0131989
-0.0131962
-0.0131943
-0.0131883
-0.0131849
-0.0131769
-0.0131712
-0.0131627
-0.0131524
-0.0131433
-0.0131279
-0.0131184
-0.0131016
-0.0130865
-0.0130695
-0.0130462
-0.0130292
-0.0130046
-0.0129788
-0.0129533
-0.0129228
-0.0129064
0.00482326
0.000667728
-0.00625542
-0.0113221
-0.012409
-0.0111538
-0.00964846
-0.00861234
-0.00801864
-0.00770571
-0.00755902
-0.00751651
-0.00754264
-0.00760956
-0.00769317
-0.00777747
-0.00785605
-0.00792781
-0.00799296
-0.00805208
-0.00810671
-0.0081596
-0.00821373
-0.00827021
-0.00832819
-0.00838722
-0.00844873
-0.00851406
-0.00858274
-0.00865322
-0.00872436
-0.00879597
-0.00886797
-0.00893983
-0.00901094
-0.00908099
-0.00914995
-0.0092179
-0.00928499
-0.00935131
-0.00941674
-0.00948094
-0.00954367
-0.00960504
-0.00966529
-0.00972461
-0.0097827
-0.0098391
-0.00989376
-0.00994714
-0.00999957
-0.010051
-0.0101011
-0.0101497
-0.0101972
-0.0102441
-0.0102905
-0.0103362
-0.0103808
-0.0104244
-0.0104672
-0.0105096
-0.0105514
-0.0105924
-0.0106325
-0.0106719
-0.0107106
-0.0107487
-0.0107862
-0.0108232
-0.0108597
-0.0108956
-0.010931
-0.0109659
-0.0110005
-0.011035
-0.0110691
-0.0111031
-0.0111367
-0.0111702
-0.0112034
-0.0112365
-0.0112693
-0.0113019
-0.0113341
-0.0113661
-0.0113977
-0.011429
-0.0114599
-0.0114908
-0.0115213
-0.0115517
-0.0115817
-0.0116115
-0.0116409
-0.0116701
-0.0116991
-0.0117276
-0.0117556
-0.011783
-0.0118103
-0.0118372
-0.011864
-0.0118904
-0.0119169
-0.0119432
-0.0119696
-0.0119957
-0.0120218
-0.0120478
-0.0120736
-0.0120992
-0.0121247
-0.0121502
-0.0121756
-0.0122011
-0.0122263
-0.0122516
-0.0122766
-0.0123016
-0.0123262
-0.0123505
-0.0123746
-0.0123982
-0.0124218
-0.0124451
-0.0124686
-0.0124917
-0.0125147
-0.012537
-0.0125594
-0.0125811
-0.0126027
-0.0126239
-0.0126449
-0.012666
-0.0126865
-0.0127073
-0.0127271
-0.0127471
-0.0127659
-0.0127851
-0.0128035
-0.0128222
-0.0128406
-0.0128588
-0.0128768
-0.0128937
-0.0129112
-0.0129274
-0.0129444
-0.0129603
-0.0129771
-0.0129926
-0.0130077
-0.0130224
-0.0130367
-0.0130513
-0.0130646
-0.0130784
-0.0130906
-0.013103
-0.0131142
-0.0131249
-0.0131357
-0.0131449
-0.013155
-0.0131621
-0.0131703
-0.0131764
-0.013183
-0.0131885
-0.013192
-0.0131965
-0.0131974
-0.0132006
-0.0131998
-0.0132003
-0.0131989
-0.0131961
-0.0131943
-0.0131882
-0.0131849
-0.0131769
-0.0131712
-0.0131627
-0.0131523
-0.0131432
-0.0131278
-0.0131184
-0.0131016
-0.0130865
-0.0130695
-0.0130462
-0.0130292
-0.0130046
-0.0129788
-0.0129533
-0.0129228
-0.0129064
0.00405929
0.000477179
-0.00608853
-0.0110631
-0.0122603
-0.0110956
-0.00961724
-0.00858814
-0.0079995
-0.00769106
-0.0075478
-0.00750772
-0.00753554
-0.00760364
-0.0076881
-0.00777306
-0.00785214
-0.00792432
-0.00798981
-0.00804923
-0.00810409
-0.00815719
-0.0082115
-0.00826813
-0.00832625
-0.00838541
-0.00844702
-0.00851246
-0.00858124
-0.0086518
-0.00872302
-0.00879471
-0.00886677
-0.00893869
-0.00900986
-0.00907996
-0.00914896
-0.00921696
-0.00928409
-0.00935045
-0.0094159
-0.00948015
-0.00954291
-0.00960431
-0.00966458
-0.00972392
-0.00978205
-0.00983847
-0.00989316
-0.00994655
-0.009999
-0.0100505
-0.0101005
-0.0101492
-0.0101967
-0.0102437
-0.0102901
-0.0103358
-0.0103804
-0.010424
-0.0104668
-0.0105092
-0.0105511
-0.0105921
-0.0106322
-0.0106715
-0.0107102
-0.0107483
-0.0107859
-0.0108229
-0.0108594
-0.0108953
-0.0109307
-0.0109657
-0.0110003
-0.0110347
-0.0110689
-0.0111028
-0.0111365
-0.01117
-0.0112032
-0.0112363
-0.0112691
-0.0113017
-0.0113339
-0.011366
-0.0113975
-0.0114288
-0.0114598
-0.0114906
-0.0115211
-0.0115515
-0.0115816
-0.0116113
-0.0116408
-0.01167
-0.011699
-0.0117275
-0.0117555
-0.0117829
-0.0118102
-0.011837
-0.0118639
-0.0118903
-0.0119168
-0.011943
-0.0119694
-0.0119956
-0.0120217
-0.0120477
-0.0120735
-0.0120991
-0.0121246
-0.0121501
-0.0121755
-0.012201
-0.0122262
-0.0122515
-0.0122766
-0.0123015
-0.0123261
-0.0123504
-0.0123745
-0.0123982
-0.0124218
-0.012445
-0.0124686
-0.0124916
-0.0125146
-0.012537
-0.0125593
-0.012581
-0.0126026
-0.0126239
-0.0126448
-0.0126659
-0.0126864
-0.0127073
-0.012727
-0.012747
-0.0127658
-0.012785
-0.0128035
-0.0128221
-0.0128406
-0.0128587
-0.0128767
-0.0128937
-0.0129111
-0.0129273
-0.0129443
-0.0129603
-0.012977
-0.0129925
-0.0130076
-0.0130223
-0.0130366
-0.0130513
-0.0130645
-0.0130783
-0.0130905
-0.0131029
-0.0131142
-0.0131249
-0.0131357
-0.0131449
-0.0131549
-0.0131621
-0.0131703
-0.0131764
-0.013183
-0.0131885
-0.013192
-0.0131965
-0.0131974
-0.0132006
-0.0131997
-0.0132003
-0.0131988
-0.0131961
-0.0131943
-0.0131882
-0.0131849
-0.0131769
-0.0131712
-0.0131626
-0.0131523
-0.0131432
-0.0131278
-0.0131184
-0.0131016
-0.0130865
-0.0130695
-0.0130462
-0.0130292
-0.0130045
-0.0129788
-0.0129533
-0.0129227
-0.0129064
0.00333607
0.000307642
-0.0058539
-0.0107205
-0.0120534
-0.0110132
-0.00957312
-0.00855196
-0.00796968
-0.0076682
-0.00753072
-0.00749482
-0.00752547
-0.00759545
-0.00768121
-0.00776713
-0.00784699
-0.0079198
-0.00798582
-0.00804566
-0.0081009
-0.0081543
-0.00820887
-0.00826571
-0.00832402
-0.00838334
-0.0084451
-0.00851067
-0.00857956
-0.00865022
-0.00872154
-0.00879332
-0.00886547
-0.00893746
-0.0090087
-0.00907887
-0.00914792
-0.00921597
-0.00928315
-0.00934955
-0.00941504
-0.00947933
-0.00954212
-0.00960354
-0.00966384
-0.00972322
-0.00978137
-0.00983781
-0.00989253
-0.00994595
-0.00999842
-0.0100499
-0.0101
-0.0101487
-0.0101962
-0.0102432
-0.0102896
-0.0103353
-0.01038
-0.0104235
-0.0104664
-0.0105088
-0.0105507
-0.0105917
-0.0106318
-0.0106712
-0.0107099
-0.010748
-0.0107856
-0.0108226
-0.0108591
-0.010895
-0.0109304
-0.0109654
-0.011
-0.0110345
-0.0110687
-0.0111026
-0.0111362
-0.0111697
-0.011203
-0.0112361
-0.0112689
-0.0113015
-0.0113337
-0.0113658
-0.0113973
-0.0114286
-0.0114596
-0.0114904
-0.0115209
-0.0115513
-0.0115814
-0.0116112
-0.0116406
-0.0116698
-0.0116988
-0.0117273
-0.0117554
-0.0117828
-0.01181
-0.0118369
-0.0118638
-0.0118902
-0.0119166
-0.0119429
-0.0119693
-0.0119955
-0.0120216
-0.0120475
-0.0120733
-0.012099
-0.0121245
-0.01215
-0.0121754
-0.0122009
-0.0122261
-0.0122514
-0.0122765
-0.0123014
-0.012326
-0.0123503
-0.0123744
-0.0123981
-0.0124217
-0.012445
-0.0124685
-0.0124915
-0.0125146
-0.0125369
-0.0125592
-0.012581
-0.0126026
-0.0126238
-0.0126448
-0.0126658
-0.0126864
-0.0127072
-0.012727
-0.0127469
-0.0127658
-0.012785
-0.0128034
-0.0128221
-0.0128405
-0.0128587
-0.0128767
-0.0128936
-0.0129111
-0.0129273
-0.0129443
-0.0129602
-0.012977
-0.0129925
-0.0130076
-0.0130223
-0.0130366
-0.0130513
-0.0130645
-0.0130783
-0.0130905
-0.0131029
-0.0131141
-0.0131248
-0.0131357
-0.0131448
-0.0131549
-0.013162
-0.0131703
-0.0131763
-0.013183
-0.0131884
-0.013192
-0.0131965
-0.0131973
-0.0132005
-0.0131997
-0.0132002
-0.0131988
-0.0131961
-0.0131943
-0.0131882
-0.0131848
-0.0131769
-0.0131711
-0.0131626
-0.0131523
-0.0131432
-0.0131278
-0.0131183
-0.0131015
-0.0130865
-0.0130694
-0.0130462
-0.0130292
-0.0130045
-0.0129788
-0.0129533
-0.0129227
-0.0129063
0.0026466
0.000130996
-0.00560003
-0.0103478
-0.0118209
-0.0109194
-0.00952244
-0.00850685
-0.00792983
-0.00763648
-0.00750661
-0.00747646
-0.00751111
-0.00758377
-0.00767139
-0.00775871
-0.00783969
-0.00791343
-0.00798022
-0.00804073
-0.00809653
-0.00815041
-0.00820537
-0.00826252
-0.00832111
-0.00838067
-0.00844265
-0.0085084
-0.00857746
-0.00864826
-0.00871971
-0.00879162
-0.00886388
-0.00893597
-0.00900729
-0.00907755
-0.00914669
-0.00921481
-0.00928206
-0.00934851
-0.00941405
-0.00947837
-0.00954121
-0.00960266
-0.00966299
-0.00972241
-0.00978058
-0.00983706
-0.0098918
-0.00994525
-0.00999775
-0.0100493
-0.0100994
-0.0101481
-0.0101957
-0.0102426
-0.0102891
-0.0103348
-0.0103795
-0.0104231
-0.010466
-0.0105084
-0.0105503
-0.0105913
-0.0106315
-0.0106708
-0.0107096
-0.0107477
-0.0107853
-0.0108223
-0.0108588
-0.0108947
-0.0109301
-0.0109651
-0.0109997
-0.0110342
-0.0110684
-0.0111024
-0.011136
-0.0111695
-0.0112027
-0.0112359
-0.0112686
-0.0113013
-0.0113335
-0.0113656
-0.0113971
-0.0114284
-0.0114594
-0.0114902
-0.0115208
-0.0115512
-0.0115812
-0.011611
-0.0116405
-0.0116696
-0.0116987
-0.0117272
-0.0117552
-0.0117826
-0.0118099
-0.0118368
-0.0118636
-0.01189
-0.0119165
-0.0119428
-0.0119692
-0.0119953
-0.0120215
-0.0120474
-0.0120732
-0.0120989
-0.0121244
-0.0121499
-0.0121753
-0.0122008
-0.012226
-0.0122513
-0.0122764
-0.0123013
-0.0123259
-0.0123502