/*--------------------------------*- C++ -*----------------------------------*\
| =========                 |                                                 |
| \\      /  F ield         | OpenFOAM: The Open Source CFD Toolbox           |
|  \\    /   O peration     | Version:  v2012                                 |
|   \\  /    A nd           | Website:  www.openfoam.com                      |
|    \\/     M anipulation  |                                                 |
\*---------------------------------------------------------------------------*/
FoamFile
{
    version     2.0;
    format      ascii;
    class       volVectorField;
    location    "2.65";
    object      U;
}
// * * * * * * * * * * * * * * * * * * * * * * * * * * * * * * * * * * * * * //

dimensions      [0 1 -1 0 0 0 0];


internalField   nonuniform List<vector> 
17600
(
(0.843859 0.00479177 0)
(1.15288 -0.00610342 0)
(0.833544 0.0033627 0)
(1.14827 0.000285496 0)
(0.832741 -0.00195501 0)
(1.13424 0.000585569 0)
(0.842322 -0.000694738 0)
(1.128 -0.00076998 0)
(0.848386 3.37577e-06 0)
(1.12364 -4.19139e-05 0)
(0.858347 0.00143762 0)
(1.12045 0.000463241 0)
(0.863962 0.00229726 0)
(1.11649 0.000762183 0)
(0.865129 0.00281756 0)
(1.11224 0.000823565 0)
(0.860438 0.00318197 0)
(1.10834 0.000829757 0)
(0.848507 0.0039073 0)
(1.10379 0.00111929 0)
(0.852559 0.00472962 0)
(1.13897 -0.00583209 0)
(0.841661 0.00322595 0)
(1.13235 0.000484178 0)
(0.846342 -0.00203294 0)
(1.11792 0.000691586 0)
(0.85989 -0.000834098 0)
(1.1096 -0.000614059 0)
(0.869344 -0.000198471 0)
(1.10156 9.54613e-05 0)
(0.884498 0.00125012 0)
(1.0923 0.000610276 0)
(0.898447 0.00214523 0)
(1.07869 0.000932644 0)
(0.912874 0.00278105 0)
(1.05903 0.000952474 0)
(0.929014 0.00349639 0)
(1.03082 0.000662409 0)
(0.948929 0.00536 0)
(0.988384 0.000261801 0)
(0.869739 0.00470531 0)
(1.11687 -0.0055596 0)
(0.859451 0.00308461 0)
(1.10514 0.000614049 0)
(0.872493 -0.00208947 0)
(1.08862 0.000735425 0)
(0.890497 -0.000927457 0)
(1.07781 -0.00054386 0)
(0.90436 -0.000288605 0)
(1.06543 7.92351e-05 0)
(0.924251 0.00119725 0)
(1.05156 0.000554507 0)
(0.943017 0.00221336 0)
(1.03442 0.000814777 0)
(0.960275 0.00302816 0)
(1.01499 0.000772165 0)
(0.973768 0.00392434 0)
(0.995422 0.000548957 0)
(0.980564 0.00583373 0)
(0.977854 0.00130386 0)
(0.892938 0.00473253 0)
(1.09099 -0.00533867 0)
(0.884833 0.00303686 0)
(1.07345 0.000614852 0)
(0.905771 -0.00206114 0)
(1.05492 0.000666891 0)
(0.924912 -0.000918533 0)
(1.04374 -0.00060975 0)
(0.939563 -0.000233541 0)
(1.0308 -8.92538e-05 0)
(0.958124 0.00130382 0)
(1.01921 0.000342695 0)
(0.973216 0.00240793 0)
(1.00816 0.000591391 0)
(0.983681 0.00330178 0)
(0.998597 0.000605645 0)
(0.987882 0.00421969 0)
(0.990918 0.000591381 0)
(0.985499 0.00602759 0)
(0.983606 0.00243193 0)
(0.918519 0.0047871 0)
(1.06557 -0.00516444 0)
(0.913208 0.00308128 0)
(1.04437 0.000505956 0)
(0.93831 -0.00196256 0)
(1.02628 0.000540066 0)
(0.95426 -0.000854145 0)
(1.01793 -0.000731071 0)
(0.965332 -0.000131081 0)
(1.00841 -0.00027818 0)
(0.978229 0.00141056 0)
(1.00263 0.000159799 0)
(0.987039 0.00252578 0)
(0.998744 0.000458631 0)
(0.991685 0.00343053 0)
(0.995693 0.000560674 0)
(0.991875 0.00436011 0)
(0.992143 0.000720369 0)
(0.988163 0.0061689 0)
(0.986256 0.00344465 0)
(0.942715 0.00484727 0)
(1.04414 -0.00503277 0)
(0.939696 0.00318163 0)
(1.02293 0.000334282 0)
(0.964238 -0.00183638 0)
(1.00814 0.000417437 0)
(0.974698 -0.000789594 0)
(1.00403 -0.000834699 0)
(0.980618 -4.72589e-05 0)
(0.998688 -0.00041109 0)
(0.987917 0.00145598 0)
(0.997277 5.02549e-05 0)
(0.992461 0.0025513 0)
(0.997075 0.000396621 0)
(0.994738 0.0034629 0)
(0.996317 0.000569313 0)
(0.994231 0.00441714 0)
(0.993802 0.000902726 0)
(0.990835 0.006269 0)
(0.988608 0.00435783 0)
(0.962703 0.00489475 0)
(1.02849 -0.00493524 0)
(0.961037 0.00329825 0)
(1.01042 0.000150099 0)
(0.981761 -0.00172049 0)
(1.00012 0.000328122 0)
(0.987203 -0.000746449 0)
(0.999322 -0.000897944 0)
(0.98898 7.78679e-06 0)
(0.996609 -0.000490147 0)
(0.99274 0.00146352 0)
(0.996947 -1.83015e-05 0)
(0.995229 0.00253778 0)
(0.997851 0.000356519 0)
(0.996806 0.00345717 0)
(0.99775 0.000601628 0)
(0.996325 0.00441576 0)
(0.995727 0.00115907 0)
(0.993264 0.00628709 0)
(0.991238 0.00522213 0)
(0.977274 0.00491692 0)
(1.01843 -0.00486007 0)
(0.976244 0.00339967 0)
(1.00491 -1.37146e-05 0)
(0.992172 -0.00163174 0)
(0.998453 0.000270414 0)
(0.994497 -0.000718432 0)
(0.999215 -0.000930431 0)
(0.99385 4.89074e-05 0)
(0.997545 -0.000538349 0)
(0.995821 0.00146211 0)
(0.998131 -6.804e-05 0)
(0.997321 0.00251483 0)
(0.999151 0.000325804 0)
(0.998602 0.0034324 0)
(0.999264 0.000656421 0)
(0.998178 0.00436546 0)
(0.997579 0.00148346 0)
(0.995428 0.00622871 0)
(0.993679 0.00603414 0)
(0.986777 0.00491061 0)
(1.01252 -0.00479759 0)
(0.986068 0.00346994 0)
(1.00333 -0.000145718 0)
(0.9978 -0.00156797 0)
(0.999303 0.000229998 0)
(0.998781 -0.000693769 0)
(1.00046 -0.000946846 0)
(0.996996 8.78153e-05 0)
(0.999081 -0.000570555 0)
(0.998143 0.00146298 0)
(0.999477 -0.000102314 0)
(0.999049 0.00248928 0)
(1.00036 0.000308531 0)
(1.00009 0.00338866 0)
(1.00053 0.000739959 0)
(0.999678 0.00427191 0)
(0.999079 0.00185813 0)
(0.997212 0.00612287 0)
(0.995682 0.00677237 0)
(0.992468 0.00488085 0)
(1.00909 -0.00474177 0)
(0.991994 0.00350753 0)
(1.00327 -0.000247515 0)
(1.00065 -0.00151972 0)
(1.00046 0.00019454 0)
(1.00129 -0.000666772 0)
(1.0016 -0.000956402 0)
(0.999092 0.000127385 0)
(1.00039 -0.000593847 0)
(0.999903 0.00146717 0)
(1.00063 -0.000124874 0)
(1.00042 0.00245923 0)
(1.00135 0.000310431 0)
(1.00123 0.00332123 0)
(1.0015 0.000859218 0)
(1.0008 0.00413999 0)
(1.00019 0.00226602 0)
(0.998576 0.00600158 0)
(0.997228 0.00741395 0)
(0.995737 0.00483572 0)
(1.00697 -0.00468876 0)
(0.995452 0.0035178 0)
(1.0035 -0.000324746 0)
(1.00201 -0.00147911 0)
(1.00119 0.000158762 0)
(1.0027 -0.000637658 0)
(1.00232 -0.000964097 0)
(1.00044 0.000165312 0)
(1.00135 -0.000612634 0)
(1.00119 0.00147049 0)
(1.00155 -0.000136679 0)
(1.00148 0.0024202 0)
(1.00216 0.000335904 0)
(1.0021 0.00322598 0)
(1.00225 0.00101664 0)
(1.00163 0.00397762 0)
(1.00103 0.00268987 0)
(0.999612 0.00589711 0)
(0.998416 0.00794158 0)
(0.997628 0.00478188 0)
(1.00554 -0.00463561 0)
(0.997474 0.00350663 0)
(1.00364 -0.000382554 0)
(1.00263 -0.00144237 0)
(1.00151 0.000122268 0)
(1.00343 -0.000608835 0)
(1.00269 -0.000972584 0)
(1.00127 0.000197714 0)
(1.00202 -0.000629112 0)
(1.00212 0.00146673 0)
(1.0023 -0.000134589 0)
(1.0023 0.00236695 0)
(1.00284 0.000387762 0)
(1.0028 0.00310208 0)
(1.00287 0.0012078 0)
(1.00229 0.00379928 0)
(1.00168 0.00310806 0)
(1.00044 0.00583765 0)
(0.999368 0.00834875 0)
(0.998755 0.00472295 0)
(1.00456 -0.0045801 0)
(0.998682 0.00347816 0)
(1.00368 -0.00042482 0)
(1.0029 -0.00140842 0)
(1.00161 8.6097e-05 0)
(1.00377 -0.000582403 0)
(1.00284 -0.000982048 0)
(1.00175 0.000221548 0)
(1.00248 -0.000642883 0)
(1.00277 0.00145078 0)
(1.0029 -0.000118861 0)
(1.00295 0.00229438 0)
(1.00342 0.000466451 0)
(1.00337 0.00295269 0)
(1.00338 0.00142306 0)
(1.00284 0.00362609 0)
(1.00223 0.00349691 0)
(1.00113 0.00584048 0)
(1.00016 0.0086431 0)
(0.99943 0.00466018 0)
(1.00391 -0.00452067 0)
(0.999413 0.00343514 0)
(1.00368 -0.000454482 0)
(1.00302 -0.00137776 0)
(1.00163 5.20208e-05 0)
(1.00392 -0.000559925 0)
(1.00291 -0.000990901 0)
(1.00203 0.000234991 0)
(1.00279 -0.000652161 0)
(1.00321 0.00141933 0)
(1.00333 -9.02098e-05 0)
(1.00342 0.00219977 0)
(1.00386 0.000568902 0)
(1.00382 0.00278465 0)
(1.00379 0.00164881 0)
(1.00328 0.00348021 0)
(1.00268 0.00383809 0)
(1.00172 0.00590781 0)
(1.00084 0.00884418 0)
(0.999815 0.00459363 0)
(1.00352 -0.00445626 0)
(0.999848 0.00337955 0)
(1.00366 -0.000473704 0)
(1.00308 -0.00135155 0)
(1.00164 2.20225e-05 0)
(1.00398 -0.000543043 0)
(1.00294 -0.000996824 0)
(1.00218 0.000237002 0)
(1.00299 -0.000654788 0)
(1.00349 0.00136987 0)
(1.00363 -4.66109e-05 0)
(1.00375 0.00208258 0)
(1.00418 0.00069018 0)
(1.00415 0.00260759 0)
(1.00409 0.00186974 0)
(1.00364 0.003377 0)
(1.00304 0.00412637 0)
(1.0022 0.00603023 0)
(1.00142 0.00897661 0)
(1.00002 0.00452303 0)
(1.00329 -0.00438602 0)
(1.0001 0.00331263 0)
(1.00363 -0.00048362 0)
(1.00311 -0.00133132 0)
(1.00165 -2.03535e-06 0)
(1.004 -0.000533271 0)
(1.00296 -0.000997305 0)
(1.00226 0.000226516 0)
(1.00311 -0.000648549 0)
(1.00366 0.00130003 0)
(1.00381 1.39632e-05 0)
(1.00396 0.00194412 0)
(1.00438 0.000823438 0)
(1.00438 0.00243422 0)
(1.0043 0.00207159 0)
(1.0039 0.00332194 0)
(1.00334 0.00436798 0)
(1.0026 0.00619204 0)
(1.00191 0.00906277 0)
(1.00011 0.00444802 0)
(1.00318 -0.00430905 0)
(1.00025 0.00323486 0)
(1.00358 -0.000484594 0)
(1.00313 -0.00131863 0)
(1.00166 -1.84392e-05 0)
(1.004 -0.000532135 0)
(1.00298 -0.000989478 0)
(1.00231 0.00020176 0)
(1.00319 -0.000630562 0)
(1.00376 0.00121041 0)
(1.00393 8.84205e-05 0)
(1.0041 0.00179024 0)
(1.0045 0.000957075 0)
(1.00453 0.00228002 0)
(1.00444 0.00224413 0)
(1.00411 0.00331425 0)
(1.00358 0.00457155 0)
(1.00295 0.00637503 0)
(1.00234 0.00911993 0)
(1.00014 0.00436837 0)
(1.00311 -0.00422471 0)
(1.00034 0.00314658 0)
(1.00351 -0.000476862 0)
(1.00314 -0.00131498 0)
(1.00167 -2.50882e-05 0)
(1.00399 -0.000541852 0)
(1.00299 -0.00097047 0)
(1.00234 0.000162054 0)
(1.00324 -0.000598882 0)
(1.00383 0.00110369 0)
(1.00399 0.000172136 0)
(1.00419 0.0016314 0)
(1.00458 0.00107656 0)
(1.00465 0.00215582 0)
(1.00455 0.00238643 0)
(1.00427 0.00335011 0)
(1.00379 0.00474598 0)
(1.00326 0.00656481 0)
(1.00273 0.00916298 0)
(1.00015 0.00428385 0)
(1.00307 -0.0041321 0)
(1.00041 0.00304713 0)
(1.00344 -0.000459121 0)
(1.00316 -0.00132249 0)
(1.00168 -2.12349e-05 0)
(1.00398 -0.000565494 0)
(1.00301 -0.000939115 0)
(1.00237 0.000107801 0)
(1.00328 -0.000555618 0)
(1.00388 0.000984875 0)
(1.00404 0.000258838 0)
(1.00425 0.00147937 0)
(1.00463 0.00117069 0)
(1.00474 0.00205945 0)
(1.00463 0.00250275 0)
(1.00443 0.00342142 0)
(1.004 0.0049017 0)
(1.00355 0.00675353 0)
(1.00309 0.00920724 0)
(1.00015 0.00419407 0)
(1.00303 -0.00403 0)
(1.00046 0.00293504 0)
(1.00335 -0.000429717 0)
(1.00317 -0.00134333 0)
(1.00169 -5.0008e-06 0)
(1.00397 -0.000604322 0)
(1.00303 -0.000895775 0)
(1.00239 4.24465e-05 0)
(1.00332 -0.000507293 0)
(1.00393 0.000858722 0)
(1.00407 0.000339945 0)
(1.00431 0.00134479 0)
(1.00467 0.00123872 0)
(1.00482 0.00198328 0)
(1.00472 0.00259631 0)
(1.00457 0.00351521 0)
(1.0042 0.00504725 0)
(1.00383 0.00693545 0)
(1.00344 0.0092647 0)
(1.00014 0.00409878 0)
(1.003 -0.00391818 0)
(1.00052 0.00280998 0)
(1.00327 -0.000388898 0)
(1.00319 -0.00137902 0)
(1.0017 2.66606e-05 0)
(1.00396 -0.000658237 0)
(1.00305 -0.000842765 0)
(1.00242 -2.69428e-05 0)
(1.00335 -0.000452308 0)
(1.00397 0.000733919 0)
(1.0041 0.00040469 0)
(1.00436 0.00123119 0)
(1.00471 0.00128666 0)
(1.0049 0.00192551 0)
(1.00481 0.00267435 0)
(1.00473 0.00362089 0)
(1.00442 0.00519002 0)
(1.00412 0.00710528 0)
(1.00378 0.0093394 0)
(1.00014 0.00399862 0)
(1.00297 -0.00379688 0)
(1.00057 0.00267112 0)
(1.00317 -0.00033474 0)
(1.00321 -0.00143097 0)
(1.0017 7.07989e-05 0)
(1.00395 -0.000722067 0)
(1.00307 -0.0007854 0)
(1.00245 -0.000104537 0)
(1.00339 -0.000398279 0)
(1.00402 0.000617406 0)
(1.00413 0.000444307 0)
(1.00442 0.00113166 0)
(1.00475 0.00131398 0)
(1.00498 0.00187924 0)
(1.00491 0.0027428 0)
(1.00489 0.00373053 0)
(1.00465 0.00533559 0)
(1.00441 0.00725922 0)
(1.00411 0.00942847 0)
(1.00013 0.00389267 0)
(1.00293 -0.00366119 0)
(1.00063 0.00251321 0)
(1.00308 -0.000261882 0)
(1.00322 -0.00150103 0)
(1.00172 0.000127476 0)
(1.00394 -0.000799674 0)
(1.00309 -0.000720668 0)
(1.00247 -0.000184317 0)
(1.00342 -0.000352846 0)
(1.00407 0.000515703 0)
(1.00416 0.000461506 0)
(1.00447 0.00104321 0)
(1.0048 0.00132399 0)
(1.00507 0.00183125 0)
(1.00502 0.00279823 0)
(1.00506 0.00383317 0)
(1.00488 0.00548168 0)
(1.00471 0.00739688 0)
(1.00444 0.0095293 0)
(1.00011 0.00377664 0)
(1.0029 -0.00350681 0)
(1.00068 0.00233079 0)
(1.00299 -0.000170146 0)
(1.00324 -0.00159466 0)
(1.00173 0.000203339 0)
(1.00393 -0.000897661 0)
(1.00312 -0.000648704 0)
(1.0025 -0.0002619 0)
(1.00345 -0.000325449 0)
(1.00411 0.000447372 0)
(1.0042 0.000450474 0)
(1.00452 0.00097454 0)
(1.00485 0.00131597 0)
(1.00516 0.00178865 0)
(1.00515 0.00281911 0)
(1.00524 0.00392547 0)
(1.00514 0.00559509 0)
(1.00502 0.00752295 0)
(1.00477 0.0096402 0)
(1.0001 0.00366257 0)
(1.00287 -0.00335355 0)
(1.00073 0.00214592 0)
(1.00289 -8.19647e-05 0)
(1.00325 -0.00168487 0)
(1.00174 0.000264951 0)
(1.00391 -0.000969645 0)
(1.00315 -0.000612658 0)
(1.00252 -0.000293277 0)
(1.0035 -0.000359999 0)
(1.00416 0.000433357 0)
(1.00423 0.000378978 0)
(1.00458 0.000946639 0)
(1.0049 0.00126341 0)
(1.00526 0.00179703 0)
(1.00529 0.00276705 0)
(1.00544 0.00402848 0)
(1.00541 0.00559201 0)
(1.00535 0.00762537 0)
(1.00511 0.00972375 0)
(1.00008 0.00353664 0)
(1.00283 -0.00317135 0)
(1.00078 0.00192916 0)
(1.0028 3.594e-05 0)
(1.00326 -0.00179715 0)
(1.00176 0.000349937 0)
(1.00389 -0.00106095 0)
(1.00318 -0.000570553 0)
(1.00254 -0.000331363 0)
(1.00354 -0.000373285 0)
(1.0042 0.000369775 0)
(1.00427 0.000363635 0)
(1.00463 0.000846683 0)
(1.00496 0.00127742 0)
(1.00535 0.00176343 0)
(1.00545 0.00276653 0)
(1.00564 0.00404906 0)
(1.00569 0.00560058 0)
(1.0057 0.00754599 0)
(1.00546 0.0096952 0)
(1.00006 0.00339987 0)
(1.0028 -0.00296548 0)
(1.00084 0.00168256 0)
(1.0027 0.000166526 0)
(1.00327 -0.00192995 0)
(1.00178 0.000443581 0)
(1.00387 -0.00115199 0)
(1.00321 -0.00054438 0)
(1.00256 -0.000358586 0)
(1.00358 -0.000389399 0)
(1.00424 0.00028964 0)
(1.0043 0.000383691 0)
(1.00469 0.000716311 0)
(1.00502 0.0013132 0)
(1.00545 0.00172994 0)
(1.00561 0.0028023 0)
(1.00586 0.00408377 0)
(1.00597 0.00567733 0)
(1.00606 0.00748262 0)
(1.00587 0.00967724 0)
(1.00003 0.00327017 0)
(1.00276 -0.00276785 0)
(1.00089 0.00144394 0)
(1.00261 0.000283711 0)
(1.00327 -0.00204062 0)
(1.00181 0.000485144 0)
(1.00383 -0.001167 0)
(1.00325 -0.00059237 0)
(1.00256 -0.000304532 0)
(1.00362 -0.00048975 0)
(1.00429 0.000270134 0)
(1.00434 0.000354681 0)
(1.00475 0.00066028 0)
(1.00509 0.00129041 0)
(1.00556 0.00181165 0)
(1.00579 0.00281839 0)
(1.00608 0.00421807 0)
(1.00626 0.00576052 0)
(1.00642 0.00756223 0)
(1.00629 0.00962352 0)
(1.00001 0.00312221 0)
(1.00271 -0.00253401 0)
(1.00093 0.00117294 0)
(1.00251 0.00042663 0)
(1.00327 -0.0021641 0)
(1.00183 0.000521667 0)
(1.00379 -0.00116664 0)
(1.0033 -0.000661014 0)
(1.00257 -0.00024571 0)
(1.00366 -0.000576589 0)
(1.00433 0.000229193 0)
(1.00437 0.00037599 0)
(1.00481 0.000632472 0)
(1.00518 0.00132692 0)
(1.00567 0.00194425 0)
(1.00598 0.00290302 0)
(1.00633 0.00432649 0)
(1.00655 0.00590262 0)
(1.00678 0.00765218 0)
(1.00671 0.00959921 0)
(0.999985 0.00297537 0)
(1.00266 -0.00229321 0)
(1.00099 0.000899233 0)
(1.00241 0.000544403 0)
(1.00327 -0.00226784 0)
(1.00186 0.000513336 0)
(1.00375 -0.00113075 0)
(1.00334 -0.000764578 0)
(1.00258 -0.000172848 0)
(1.00369 -0.000630478 0)
(1.00439 0.000179983 0)
(1.0044 0.000449879 0)
(1.00487 0.000658935 0)
(1.00528 0.00141203 0)
(1.00578 0.00211547 0)
(1.00616 0.00302244 0)
(1.00658 0.00440816 0)
(1.00686 0.00603411 0)
(1.00714 0.00773236 0)
(1.00712 0.00956075 0)
(0.999964 0.00282237 0)
(1.0026 -0.00204643 0)
(1.00104 0.000630864 0)
(1.00231 0.000646692 0)
(1.00326 -0.0023357 0)
(1.0019 0.000462392 0)
(1.00369 -0.00106457 0)
(1.00339 -0.000877513 0)
(1.00258 -9.67995e-05 0)
(1.00372 -0.000627254 0)
(1.00445 0.000140869 0)
(1.00444 0.000568401 0)
(1.00493 0.000722891 0)
(1.00539 0.00150573 0)
(1.00591 0.00229952 0)
(1.00635 0.00315746 0)
(1.00685 0.00446741 0)
(1.00718 0.00611376 0)
(1.0075 0.00778251 0)
(1.00751 0.00949976 0)
(0.999945 0.00266644 0)
(1.00252 -0.00179456 0)
(1.00109 0.000369119 0)
(1.0022 0.000723618 0)
(1.00325 -0.00237432 0)
(1.00194 0.00038003 0)
(1.00364 -0.000976213 0)
(1.00344 -0.000983288 0)
(1.00259 -1.4038e-05 0)
(1.00374 -0.000553787 0)
(1.00452 0.00013013 0)
(1.00448 0.000718709 0)
(1.00499 0.000815119 0)
(1.00551 0.00158172 0)
(1.00603 0.00246582 0)
(1.00653 0.00330194 0)
(1.00712 0.00450644 0)
(1.00752 0.00612969 0)
(1.00786 0.00777621 0)
(1.00789 0.00940029 0)
(0.999929 0.00251034 0)
(1.00244 -0.00154759 0)
(1.00113 0.000129352 0)
(1.0021 0.000756872 0)
(1.00323 -0.00238801 0)
(1.00199 0.000261442 0)
(1.00357 -0.000874776 0)
(1.00349 -0.00106988 0)
(1.00261 8.20597e-05 0)
(1.00375 -0.000421071 0)
(1.0046 0.000140758 0)
(1.00453 0.000877242 0)
(1.00505 0.00093548 0)
(1.00564 0.00163078 0)
(1.00617 0.00259239 0)
(1.0067 0.0034476 0)
(1.00738 0.00453704 0)
(1.00785 0.00608805 0)
(1.00822 0.00770757 0)
(1.00826 0.00925821 0)
(0.999914 0.00235234 0)
(1.00235 -0.00130718 0)
(1.00118 -7.84152e-05 0)
(1.002 0.000752519 0)
(1.0032 -0.00237205 0)
(1.00203 0.000118221 0)
(1.00351 -0.000768655 0)
(1.00354 -0.00111438 0)
(1.00265 0.000189512 0)
(1.00375 -0.00024877 0)
(1.00468 0.000154787 0)
(1.00459 0.00101697 0)
(1.0051 0.00108342 0)
(1.00577 0.00165727 0)
(1.00633 0.00267203 0)
(1.00688 0.00358701 0)
(1.00763 0.00457886 0)
(1.00819 0.00601693 0)
(1.00859 0.0075973 0)
(1.00862 0.00909169 0)
(0.999902 0.00219437 0)
(1.00225 -0.0010795 0)
(1.00121 -0.000253218 0)
(1.00189 0.000718002 0)
(1.00317 -0.00234218 0)
(1.00209 -2.88969e-05 0)
(1.00345 -0.000647328 0)
(1.00359 -0.00110682 0)
(1.00269 0.000302254 0)
(1.00374 -5.98714e-05 0)
(1.00476 0.000165967 0)
(1.00465 0.00111667 0)
(1.00514 0.00124588 0)
(1.00589 0.00167696 0)
(1.0065 0.00270377 0)
(1.00705 0.00370506 0)
(1.00786 0.00463836 0)
(1.00852 0.00594323 0)
(1.00896 0.00746086 0)
(1.00898 0.00890666 0)
(0.999891 0.00204202 0)
(1.00215 -0.000877296 0)
(1.00125 -0.000389321 0)
(1.0018 0.000656022 0)
(1.00313 -0.0023043 0)
(1.00215 -0.000164994 0)
(1.00339 -0.000505312 0)
(1.00364 -0.0010658 0)
(1.00274 0.000401066 0)
(1.00373 0.000132377 0)
(1.00483 0.000179865 0)
(1.00473 0.00117445 0)
(1.00517 0.00141237 0)
(1.006 0.0017149 0)
(1.00668 0.00270295 0)
(1.00724 0.00378811 0)
(1.00809 0.00470956 0)
(1.00883 0.00588118 0)
(1.00932 0.00730475 0)
(1.00933 0.00869772 0)
(0.999883 0.00189163 0)
(1.00204 -0.000696914 0)
(1.00127 -0.000490419 0)
(1.0017 0.000587501 0)
(1.00309 -0.00225022 0)
(1.00222 -0.000281007 0)
(1.00334 -0.000339598 0)
(1.00368 -0.00099976 0)
(1.0028 0.000476503 0)
(1.0037 0.00032937 0)
(1.00489 0.000205978 0)
(1.00482 0.00120364 0)
(1.0052 0.00158197 0)
(1.0061 0.00179196 0)
(1.00687 0.00269103 0)
(1.00744 0.00383268 0)
(1.00831 0.00477691 0)
(1.00913 0.00583335 0)
(1.00968 0.00713701 0)
(1.00969 0.00846531 0)
(0.999876 0.00174489 0)
(1.00193 -0.000540977 0)
(1.00129 -0.000563527 0)
(1.0016 0.000534857 0)
(1.00304 -0.00217031 0)
(1.0023 -0.00037377 0)
(1.00329 -0.000165412 0)
(1.00372 -0.000915525 0)
(1.00288 0.000518446 0)
(1.00367 0.000531345 0)
(1.00495 0.000250213 0)
(1.00492 0.00120655 0)
(1.00524 0.00174103 0)
(1.00618 0.00190528 0)
(1.00706 0.0026774 0)
(1.00766 0.00383616 0)
(1.00853 0.00482024 0)
(1.00941 0.00579171 0)
(1.01002 0.00696428 0)
(1.01004 0.00821166 0)
(0.999872 0.00160461 0)
(1.00181 -0.000417815 0)
(1.0013 -0.000606685 0)
(1.00151 0.0004978 0)
(1.00299 -0.00205613 0)
(1.00239 -0.000455791 0)
(1.00326 -3.40293e-06 0)
(1.00376 -0.000819966 0)
(1.00296 0.000526212 0)
(1.00364 0.000726578 0)
(1.00498 0.000322114 0)
(1.00504 0.00118515 0)
(1.00529 0.00187513 0)
(1.00625 0.00204585 0)
(1.00724 0.0026758 0)
(1.0079 0.00380437 0)
(1.00875 0.00482948 0)
(1.00967 0.00574731 0)
(1.01035 0.00679186 0)
(1.01038 0.007941 0)
(0.999869 0.00147146 0)
(1.0017 -0.000325537 0)
(1.00131 -0.000629735 0)
(1.00142 0.000485475 0)
(1.00293 -0.00190792 0)
(1.00249 -0.000529526 0)
(1.00323 0.000144788 0)
(1.00379 -0.000700555 0)
(1.00306 0.000514637 0)
(1.00362 0.000909077 0)
(1.005 0.000435261 0)
(1.00516 0.00115332 0)
(1.00536 0.00197591 0)
(1.00631 0.00220388 0)
(1.00741 0.00269932 0)
(1.00814 0.00374965 0)
(1.00899 0.00479969 0)
(1.00992 0.00568928 0)
(1.01065 0.00662056 0)
(1.01071 0.00766031 0)
(0.999868 0.00134314 0)
(1.00159 -0.000252213 0)
(1.00133 -0.000646231 0)
(1.00134 0.000497507 0)
(1.00287 -0.0017275 0)
(1.0026 -0.000585203 0)
(1.00321 0.000278661 0)
(1.00381 -0.000551654 0)
(1.00317 0.000494452 0)
(1.00361 0.00107079 0)
(1.005 0.000587864 0)
(1.00529 0.00112707 0)
(1.00546 0.00203147 0)
(1.00636 0.00235894 0)
(1.00756 0.00274902 0)
(1.00838 0.00368564 0)
(1.00923 0.00473119 0)
(1.01016 0.00560886 0)
(1.01093 0.0064493 0)
(1.01102 0.00737878 0)
(0.999869 0.00121965 0)
(1.00148 -0.000192299 0)
(1.00134 -0.000665222 0)
(1.00127 0.000521132 0)
(1.00281 -0.00151822 0)
(1.00271 -0.000615922 0)
(1.00321 0.000402878 0)
(1.00382 -0.000379913 0)
(1.00328 0.000470752 0)
(1.00361 0.00120035 0)
(1.00499 0.000765913 0)
(1.00541 0.00112247 0)
(1.00558 0.00204089 0)
(1.00643 0.00248879 0)
(1.0077 0.00281897 0)
(1.00862 0.0036265 0)
(1.00949 0.00463205 0)
(1.0104 0.00550095 0)
(1.0112 0.00627289 0)
(1.01131 0.00709887 0)
(0.999872 0.00110042 0)
(1.00137 -0.000138359 0)
(1.00136 -0.000694726 0)
(1.00122 0.000553917 0)
(1.00274 -0.00128327 0)
(1.00283 -0.000618898 0)
(1.00323 0.000519151 0)
(1.00382 -0.000187767 0)
(1.0034 0.000452126 0)
(1.00364 0.00129569 0)
(1.00497 0.000957222 0)
(1.00553 0.00115122 0)
(1.00572 0.00201999 0)
(1.00651 0.00257732 0)
(1.00781 0.00289646 0)
(1.00884 0.0035804 0)
(1.00975 0.00451495 0)
(1.01064 0.00536645 0)
(1.01145 0.00608649 0)
(1.01159 0.00681995 0)
(0.999877 0.000986323 0)
(1.00127 -9.16569e-05 0)
(1.00139 -0.000726085 0)
(1.00118 0.000587709 0)
(1.00268 -0.00102088 0)
(1.00294 -0.00059598 0)
(1.00326 0.000625204 0)
(1.00382 2.17501e-05 0)
(1.00353 0.000447218 0)
(1.00368 0.00135528 0)
(1.00495 0.0011538 0)
(1.00562 0.00121599 0)
(1.00587 0.00199077 0)
(1.00661 0.00262004 0)
(1.00792 0.00296336 0)
(1.00905 0.00354491 0)
(1.01 0.00438926 0)
(1.01089 0.00520885 0)
(1.01168 0.00588597 0)
(1.01184 0.00653934 0)
(0.999884 0.000879397 0)
(1.00117 -5.00508e-05 0)
(1.00142 -0.000751428 0)
(1.00117 0.00061528 0)
(1.00261 -0.00073713 0)
(1.00306 -0.000543182 0)
(1.00332 0.000721221 0)
(1.00381 0.000249385 0)
(1.00364 0.000470856 0)
(1.00376 0.00137836 0)
(1.00494 0.00134213 0)
(1.0057 0.00131471 0)
(1.00602 0.00196918 0)
(1.00672 0.00262631 0)
(1.00803 0.00300681 0)
(1.00924 0.003513 0)
(1.01025 0.00426031 0)
(1.01113 0.00503244 0)
(1.01191 0.00566881 0)
(1.01207 0.00625319 0)
(0.999892 0.000779253 0)
(1.00107 -5.21202e-06 0)
(1.00146 -0.000764732 0)
(1.00118 0.000639796 0)
(1.00255 -0.000445424 0)
(1.00317 -0.000461657 0)
(1.00339 0.000795278 0)
(1.0038 0.000493542 0)
(1.00374 0.000537269 0)
(1.00386 0.00137314 0)
(1.00493 0.00150271 0)
(1.00576 0.00144226 0)
(1.00618 0.00196533 0)
(1.00686 0.00261081 0)
(1.00815 0.0030232 0)
(1.00941 0.0034774 0)
(1.01049 0.00412988 0)
(1.01137 0.00484108 0)
(1.01213 0.00543437 0)
(1.01229 0.00595775 0)
(0.999903 0.000684933 0)
(1.00098 5.27075e-05 0)
(1.0015 -0.000756549 0)
(1.00121 0.000658494 0)
(1.00249 -0.0001544 0)
(1.00328 -0.000358949 0)
(1.00348 0.000842787 0)
(1.0038 0.00074045 0)
(1.00383 0.000650763 0)
(1.00397 0.0013573 0)
(1.00495 0.00162092 0)
(1.00581 0.00158385 0)
(1.00632 0.00198532 0)
(1.007 0.00258545 0)
(1.00827 0.00301379 0)
(1.00958 0.00343186 0)
(1.01071 0.00399821 0)
(1.0116 0.00464032 0)
(1.01234 0.00518689 0)
(1.01249 0.0056544 0)
(0.999915 0.000590555 0)
(1.00089 0.000133896 0)
(1.00154 -0.000715777 0)
(1.00126 0.000671126 0)
(1.00243 0.000125416 0)
(1.00337 -0.000237166 0)
(1.0036 0.000867696 0)
(1.0038 0.000972052 0)
(1.0039 0.000808784 0)
(1.00408 0.00135374 0)
(1.00499 0.00169496 0)
(1.00586 0.00171805 0)
(1.00645 0.00202614 0)
(1.00715 0.00255645 0)
(1.0084 0.00297816 0)
(1.00973 0.00336675 0)
(1.01091 0.0038589 0)
(1.01182 0.00443026 0)
(1.01253 0.00492804 0)
(1.01267 0.00534356 0)
(0.999929 0.000510366 0)
(1.00081 0.000209482 0)
(1.00157 -0.000652677 0)
(1.00133 0.000685155 0)
(1.00238 0.000400784 0)
(1.00345 -8.62715e-05 0)
(1.00373 0.000876944 0)
(1.00382 0.00117806 0)
(1.00394 0.00100519 0)
(1.00419 0.00138118 0)
(1.00505 0.00173729 0)
(1.00591 0.00182956 0)
(1.00656 0.00208089 0)
(1.00729 0.00253225 0)
(1.00852 0.00292356 0)
(1.00987 0.00327961 0)
(1.0111 0.0037077 0)
(1.01202 0.00421087 0)
(1.01272 0.00465971 0)
(1.01283 0.00502668 0)
(0.999943 0.000439911 0)
(1.00073 0.000288249 0)
(1.00161 -0.000568153 0)
(1.00142 0.000689723 0)
(1.00234 0.000667009 0)
(1.00351 9.06803e-05 0)
(1.00387 0.000878601 0)
(1.00387 0.00135273 0)
(1.00398 0.00123172 0)
(1.00428 0.00145016 0)
(1.00512 0.00176622 0)
(1.00597 0.00191143 0)
(1.00666 0.0021359 0)
(1.00741 0.00251514 0)
(1.00864 0.00285764 0)
(1.01001 0.00317171 0)
(1.01127 0.00354089 0)
(1.01221 0.00397994 0)
(1.01289 0.00438139 0)
(1.01298 0.00470388 0)
(0.999958 0.000369879 0)
(1.00065 0.000393595 0)
(1.00163 -0.000457806 0)
(1.00153 0.000680883 0)
(1.00231 0.000910713 0)
(1.00354 0.000300157 0)
(1.00401 0.000882885 0)
(1.00394 0.00148633 0)
(1.004 0.00146642 0)
(1.00435 0.0015588 0)
(1.00519 0.00179458 0)
(1.00603 0.00196299 0)
(1.00675 0.00217617 0)
(1.00752 0.00249924 0)
(1.00874 0.00278492 0)
(1.01012 0.00304678 0)
(1.01142 0.00335602 0)
(1.01238 0.00373328 0)
(1.01304 0.00408892 0)
(1.0131 0.00437137 0)
(0.999972 0.000309381 0)
(1.00058 0.000506774 0)
(1.00165 -0.000323554 0)
(1.00165 0.000671782 0)
(1.0023 0.00113111 0)
(1.00355 0.000551647 0)
(1.00414 0.000910949 0)
(1.00403 0.00158055 0)
(1.00403 0.00169387 0)
(1.0044 0.00170849 0)
(1.00525 0.00184125 0)
(1.00609 0.0019972 0)
(1.00683 0.00220045 0)
(1.00762 0.00248136 0)
(1.00883 0.00271217 0)
(1.01022 0.00291458 0)
(1.01155 0.00315718 0)
(1.01253 0.00347045 0)
(1.01318 0.00377953 0)
(1.01321 0.00402531 0)
(0.999987 0.000259449 0)
(1.00051 0.000606792 0)
(1.00164 -0.000159375 0)
(1.00177 0.000671468 0)
(1.0023 0.00132592 0)
(1.00353 0.000832526 0)
(1.00426 0.000980894 0)
(1.00415 0.00164366 0)
(1.00406 0.00190016 0)
(1.00442 0.00189263 0)
(1.00529 0.0019183 0)
(1.00615 0.00202572 0)
(1.00691 0.00220847 0)
(1.0077 0.00245418 0)
(1.00889 0.00263846 0)
(1.01028 0.00277924 0)
(1.01164 0.0029481 0)
(1.01266 0.00319097 0)
(1.0133 0.00344939 0)
(1.0133 0.00366008 0)
(1 0.000227651 0)
(1.00045 0.000680866 0)
(1.00162 2.74414e-05 0)
(1.00189 0.000684638 0)
(1.00232 0.00149894 0)
(1.0035 0.00113646 0)
(1.00434 0.00110636 0)
(1.00427 0.00168896 0)
(1.00411 0.00207298 0)
(1.00442 0.00209425 0)
(1.00529 0.00203088 0)
(1.00619 0.0020579 0)
(1.00697 0.00220313 0)
(1.00776 0.00240916 0)
(1.00893 0.00255805 0)
(1.01032 0.00263731 0)
(1.0117 0.0027322 0)
(1.01275 0.00289499 0)
(1.0134 0.00309488 0)
(1.01337 0.00326837 0)
(1.00001 0.000203802 0)
(1.00039 0.000751473 0)
(1.00159 0.000235137 0)
(1.002 0.000712191 0)
(1.00236 0.00164043 0)
(1.00345 0.0014477 0)
(1.00439 0.0012886 0)
(1.0044 0.00174002 0)
(1.00417 0.00221205 0)
(1.00441 0.00229721 0)
(1.00527 0.00218092 0)
(1.0062 0.00210966 0)
(1.00702 0.00219521 0)
(1.00781 0.00235053 0)
(1.00895 0.00246648 0)
(1.01032 0.00248873 0)
(1.01172 0.002512 0)
(1.01281 0.00258891 0)
(1.01347 0.0027196 0)
(1.01342 0.0028485 0)
(1.00002 0.00018784 0)
(1.00035 0.000822335 0)
(1.00154 0.000449257 0)
(1.0021 0.000771803 0)
(1.00242 0.00174939 0)
(1.0034 0.00176017 0)
(1.0044 0.00152127 0)
(1.00451 0.00182518 0)
(1.00425 0.00231992 0)
(1.00439 0.00248744 0)
(1.00521 0.00235239 0)
(1.00617 0.00219174 0)
(1.00703 0.00218808 0)
(1.00784 0.0022857 0)
(1.00894 0.00235586 0)
(1.01028 0.00233319 0)
(1.01169 0.00228315 0)
(1.01281 0.00227836 0)
(1.01349 0.00232947 0)
(1.01344 0.00240451 0)
(1.00003 0.000189307 0)
(1.00031 0.000878166 0)
(1.00148 0.000671346 0)
(1.00218 0.000876596 0)
(1.0025 0.00184389 0)
(1.00335 0.00205555 0)
(1.00438 0.00180192 0)
(1.00459 0.00195577 0)
(1.00434 0.00241628 0)
(1.00438 0.0026537 0)
(1.00512 0.00253508 0)
(1.00609 0.00230505 0)
(1.007 0.00219818 0)
(1.00783 0.00221979 0)
(1.0089 0.00223285 0)
(1.0102 0.00216549 0)
(1.0116 0.00204715 0)
(1.01275 0.00196143 0)
(1.01346 0.00193135 0)
(1.01342 0.00194189 0)
(1.00004 0.000201172 0)
(1.00028 0.000925718 0)
(1.00142 0.00090442 0)
(1.00224 0.00102069 0)
(1.00259 0.00193879 0)
(1.00331 0.00231966 0)
(1.00431 0.00211883 0)
(1.00463 0.00213954 0)
(1.00441 0.00253057 0)
(1.00437 0.00280438 0)
(1.00501 0.00272301 0)
(1.00596 0.00244599 0)
(1.00692 0.00223975 0)
(1.00777 0.00216097 0)
(1.00882 0.00210601 0)
(1.01008 0.00198247 0)
(1.01146 0.0018033 0)
(1.01262 0.00163696 0)
(1.01336 0.00152742 0)
(1.01334 0.00146718 0)
(1.00004 0.000224301 0)
(1.00026 0.000968983 0)
(1.00135 0.0011338 0)
(1.00228 0.00120599 0)
(1.00267 0.0020424 0)
(1.00328 0.00256406 0)
(1.00423 0.00245288 0)
(1.00463 0.00238081 0)
(1.00446 0.00267383 0)
(1.00435 0.00295303 0)
(1.00488 0.00290559 0)
(1.00579 0.00260356 0)
(1.00677 0.00230572 0)
(1.00765 0.00211516 0)
(1.00869 0.00197408 0)
(1.0099 0.00178404 0)
(1.01125 0.00154091 0)
(1.01242 0.00129906 0)
(1.01319 0.00110682 0)
(1.01319 0.00097494 0)
(1.00004 0.000258578 0)
(1.00025 0.00101229 0)
(1.00127 0.00135058 0)
(1.00228 0.00142873 0)
(1.00276 0.00216594 0)
(1.00327 0.00278535 0)
(1.00413 0.00279108 0)
(1.00458 0.00267009 0)
(1.00448 0.00285587 0)
(1.00433 0.00310812 0)
(1.00474 0.00308681 0)
(1.00557 0.00277517 0)
(1.00655 0.00239634 0)
(1.00746 0.00209333 0)
(1.00848 0.0018471 0)
(1.00965 0.0015778 0)
(1.01097 0.00125983 0)
(1.01214 0.000939551 0)
(1.01294 0.000662991 0)
(1.01297 0.000451032 0)
(1.00004 0.000299684 0)
(1.00024 0.00105977 0)
(1.00121 0.00155726 0)
(1.00227 0.00167738 0)
(1.00283 0.00232323 0)
(1.00327 0.00299647 0)
(1.00402 0.00312445 0)
(1.00449 0.00299934 0)
(1.00446 0.00308602 0)
(1.00428 0.00328353 0)
(1.00457 0.00327729 0)
(1.0053 0.00296128 0)
(1.00625 0.00252192 0)
(1.00718 0.00210051 0)
(1.0082 0.0017406 0)
(1.00933 0.00136499 0)
(1.01061 0.000961123 0)
(1.01177 0.000547298 0)
(1.01258 0.000178699 0)
(1.01266 -0.000123582 0)
(1.00004 0.000347229 0)
(1.00024 0.00111386 0)
(1.00115 0.00175107 0)
(1.00223 0.00194914 0)
(1.00288 0.00251676 0)
(1.00327 0.00320631 0)
(1.00391 0.00345552 0)
(1.00436 0.00335465 0)
(1.00439 0.00337071 0)
(1.0042 0.00349733 0)
(1.00438 0.00348954 0)
(1.00499 0.00317597 0)
(1.00588 0.00268379 0)
(1.00679 0.00215671 0)
(1.0078 0.00166101 0)
(1.0089 0.00116134 0)
(1.01014 0.000643044 0)
(1.01128 0.000115715 0)