/*--------------------------------*- C++ -*----------------------------------*\
| =========                 |                                                 |
| \\      /  F ield         | OpenFOAM: The Open Source CFD Toolbox           |
|  \\    /   O peration     | Version:  v2012                                 |
|   \\  /    A nd           | Website:  www.openfoam.com                      |
|    \\/     M anipulation  |                                                 |
\*---------------------------------------------------------------------------*/
FoamFile
{
    version     2.0;
    format      ascii;
    class       volScalarField;
    location    "4.2";
    object      p;
}
// * * * * * * * * * * * * * * * * * * * * * * * * * * * * * * * * * * * * * //

dimensions      [0 2 -2 0 0 0 0];


internalField   nonuniform List<scalar> 
17600
(
5.18857e-11
0.000454335
-0.000544749
-0.00117458
-0.000868056
-0.0012918
-0.00179576
-0.00220293
-0.00239037
-0.00302604
-0.00297751
-0.00352224
-0.00320705
-0.00380908
-0.00341397
-0.00324886
-0.0023181
-0.000899526
0.00122408
0.00503414
8.20373e-07
0.000453928
-0.000543794
-0.00117562
-0.000868064
-0.0012937
-0.00179565
-0.00220502
-0.00238976
-0.00302938
-0.00297621
-0.00352832
-0.0032044
-0.00381894
-0.00340944
-0.0032668
-0.00230815
-0.000944236
0.00124243
0.00475193
2.29545e-06
0.000452887
-0.000542629
-0.00117724
-0.000868187
-0.00129643
-0.00179544
-0.00220831
-0.00238944
-0.00303496
-0.00297585
-0.00353807
-0.00320234
-0.00383374
-0.00340469
-0.00329108
-0.00229807
-0.00099986
0.00124578
0.00432852
4.44244e-06
0.000451146
-0.000541895
-0.00117848
-0.000868661
-0.00129918
-0.00179538
-0.00221204
-0.00238997
-0.00304176
-0.00297711
-0.00354932
-0.00320215
-0.00384888
-0.00340244
-0.00331361
-0.00229292
-0.00105159
0.00121714
0.00391664
7.57387e-06
0.000448564
-0.000541438
-0.00117937
-0.00086959
-0.00130196
-0.00179545
-0.0022162
-0.002391
-0.00304949
-0.0029788
-0.0035615
-0.00320188
-0.00386399
-0.0034005
-0.00333509
-0.00229109
-0.00110204
0.00115496
0.00353267
1.18228e-05
0.000445069
-0.000541099
-0.00118012
-0.000870865
-0.0013048
-0.00179552
-0.00222068
-0.00239209
-0.00305783
-0.00298022
-0.00357407
-0.00320092
-0.00387914
-0.00339848
-0.00335658
-0.00229316
-0.00115375
0.00105985
0.00317409
1.70693e-05
0.000440707
-0.000540797
-0.00118085
-0.000872276
-0.0013077
-0.00179549
-0.0022254
-0.00239306
-0.00306657
-0.0029814
-0.00358674
-0.00320006
-0.00389395
-0.00339805
-0.00337763
-0.00230167
-0.00120734
0.000933434
0.00283478
2.30813e-05
0.000435622
-0.000540465
-0.0011816
-0.000873638
-0.00131064
-0.0017953
-0.00223032
-0.00239391
-0.00307571
-0.00298254
-0.0035995
-0.00320001
-0.00390814
-0.00340101
-0.00339695
-0.00231961
-0.00126249
0.00077771
0.00250754
2.96571e-05
0.000429985
-0.000540071
-0.00118243
-0.000874853
-0.00131367
-0.00179496
-0.00223548
-0.00239469
-0.00308529
-0.00298386
-0.00361235
-0.00320117
-0.00392146
-0.00340843
-0.00341361
-0.00234922
-0.00131861
0.000594841
0.00218476
3.66804e-05
0.000423936
-0.000539617
-0.00118337
-0.000875891
-0.00131681
-0.00179452
-0.00224091
-0.00239551
-0.00309529
-0.00298554
-0.00362507
-0.00320398
-0.00393342
-0.00342111
-0.00342734
-0.00239186
-0.00137577
0.000387988
0.00185962
4.41102e-05
0.000417562
-0.000539114
-0.00118447
-0.000876757
-0.00132008
-0.00179401
-0.00224659
-0.00239646
-0.00310561
-0.0029878
-0.00363733
-0.00320903
-0.00394335
-0.0034401
-0.00343796
-0.00244841
-0.00143644
0.000162096
0.00152739
5.19495e-05
0.000410917
-0.00053856
-0.00118574
-0.000877462
-0.00132346
-0.00179348
-0.00225249
-0.00239763
-0.00311607
-0.0029909
-0.00364869
-0.00321701
-0.00395055
-0.00346644
-0.00344559
-0.00251891
-0.00150431
-7.68977e-05
0.00118543
6.02186e-05
0.000404027
-0.000537939
-0.00118721
-0.000878014
-0.00132693
-0.00179296
-0.00225855
-0.00239915
-0.00312646
-0.00299519
-0.00365864
-0.00322867
-0.0039545
-0.00350052
-0.00345097
-0.00260271
-0.0015837
-0.000323276
0.000833016
6.89416e-05
0.000396909
-0.000537228
-0.0011889
-0.000878424
-0.00133045
-0.00179251
-0.00226469
-0.00240117
-0.00313651
-0.00300106
-0.0036667
-0.00324464
-0.0039551
-0.00354233
-0.00345156
-0.00269815
-0.00167893
-0.000572714
0.000471046
7.81392e-05
0.000389574
-0.0005364
-0.00119082
-0.000878707
-0.00133397
-0.00179221
-0.0022708
-0.00240389
-0.00314589
-0.00300892
-0.00367246
-0.00326539
-0.00395257
-0.00359215
-0.00345842
-0.00280199
-0.00179337
-0.000823035
0.000101755
8.78265e-05
0.000382041
-0.000535427
-0.00119298
-0.000878893
-0.00133744
-0.00179215
-0.00227673
-0.00240756
-0.00315428
-0.00301919
-0.00367558
-0.00329126
-0.00394734
-0.00364965
-0.00347046
-0.00291106
-0.00192895
-0.00107375
-0.000271672
9.80128e-05
0.00037433
-0.000534285
-0.00119535
-0.000879029
-0.00134074
-0.00179248
-0.00228227
-0.00241245
-0.00316137
-0.00303222
-0.00367587
-0.00332235
-0.00394031
-0.00371345
-0.003491
-0.00302358
-0.00208626
-0.00132572
-0.000645909
0.000108699
0.000366481
-0.000532955
-0.0011979
-0.000879192
-0.00134377
-0.00179338
-0.00228723
-0.00241881
-0.00316685
-0.00304829
-0.0036734
-0.00335835
-0.00393302
-0.00378187
-0.00352284
-0.00313898
-0.00226452
-0.00158109
-0.0010181
0.000119876
0.000358551
-0.000531422
-0.00120058
-0.000879493
-0.00134637
-0.00179504
-0.00229138
-0.0024269
-0.00317056
-0.00306746
-0.00366855
-0.00339853
-0.00392731
-0.00385339
-0.00356812
-0.00325742
-0.00246173
-0.00184229
-0.0013858
0.000131517
0.000350628
-0.000529682
-0.00120331
-0.000880079
-0.00134836
-0.00179767
-0.00229449
-0.00243691
-0.0031724
-0.00308959
-0.00366205
-0.00344183
-0.00392502
-0.00392707
-0.00362842
-0.00337982
-0.00267527
-0.00211131
-0.00174719
0.000143579
0.000342829
-0.000527756
-0.00120596
-0.000881113
-0.00134954
-0.00180153
-0.00229638
-0.00244889
-0.00317247
-0.00311431
-0.00365484
-0.00348716
-0.00392844
-0.00400238
-0.00370473
-0.00350812
-0.00290278
-0.00238956
-0.00210135
0.000156001
0.000335309
-0.000525679
-0.0012084
-0.000882787
-0.00134972
-0.00180682
-0.002297
-0.00246271
-0.00317116
-0.00314096
-0.00364789
-0.00353369
-0.00393819
-0.00407924
-0.00379771
-0.00364531
-0.00314282
-0.00267795
-0.00244809
0.000168694
0.000328277
-0.00052349
-0.00121047
-0.000885328
-0.00134872
-0.00181361
-0.00229642
-0.00247805
-0.00316905
-0.00316874
-0.0036419
-0.00358087
-0.00395484
-0.00415813
-0.00390756
-0.00379472
-0.00339515
-0.00297726
-0.00278825
0.000181515
0.00032202
-0.000521255
-0.00121199
-0.00088893
-0.00134645
-0.0018219
-0.00229488
-0.00249445
-0.00316669
-0.00319696
-0.00363742
-0.00362821
-0.00397881
-0.00423967
-0.00403363
-0.00395903
-0.00366048
-0.00328921
-0.00312464
0.000194304
0.000316881
-0.000519008
-0.00121287
-0.000893734
-0.00134295
-0.0018315
-0.0022929
-0.00251124
-0.00316484
-0.00322481
-0.00363507
-0.00367517
-0.00401029
-0.00432421
-0.00417415
-0.00413975
-0.00394066
-0.00361925
-0.00346312
0.000206871
0.000313259
-0.000516763
-0.00121305
-0.000899805
-0.00133839
-0.00184199
-0.00229119
-0.00252755
-0.00316435
-0.00325171
-0.00363495
-0.00372161
-0.00404894
-0.00441145
-0.00432451
-0.00433122
-0.00423637
-0.00398293
-0.00381433
0.00021894
0.000311618
-0.000514512
-0.00121254
-0.000907084
-0.0013331
-0.00185279
-0.00229048
-0.00254266
-0.00316523
-0.00327807
-0.00363621
-0.00376808
-0.00409426
-0.00450113
-0.00448266
-0.00453189
-0.00453624
-0.00435738
-0.00421455
0.00023021
0.000312418
-0.000512104
-0.00121144
-0.000915318
-0.00132774
-0.0018633
-0.00229139
-0.00255617
-0.00316695
-0.0033044
-0.00363898
-0.00381519
-0.00414743
-0.00459456
-0.00465708
-0.00475194
-0.00484362
-0.00474674
-0.00462479
0.000240357
0.000316065
-0.000509245
-0.00120998
-0.000924119
-0.00132298
-0.00187305
-0.00229401
-0.00256836
-0.00316885
-0.00333144
-0.00364291
-0.00386428
-0.00421562
-0.00470192
-0.00484323
-0.00498535
-0.00515725
-0.00514656
-0.00504093
0.000249017
0.000322911
-0.000505474
-0.00120858
-0.000932867
-0.00131981
-0.00188172
-0.00229823
-0.00258028
-0.00317037
-0.00336163
-0.00365665
-0.00391874
-0.00429786
-0.00482047
-0.00503714
-0.00522636
-0.00547209
-0.00554889
-0.00546068
0.000255898
0.000333347
-0.00050016
-0.00120786
-0.000940896
-0.00131904
-0.00188936
-0.00230387
-0.0025936
-0.0031726
-0.00339705
-0.00368174
-0.00397686
-0.00438733
-0.00494698
-0.00523763
-0.00547354
-0.00578541
-0.00594864
-0.00588241
0.00026077
0.000347547
-0.000492364
-0.00120854
-0.000947835
-0.00132046
-0.00189714
-0.00230975
-0.00261067
-0.00317975
-0.00343704
-0.00371559
-0.00403735
-0.00447974
-0.00507874
-0.00544483
-0.00572957
-0.00609845
-0.00634262
-0.00630398
0.00026344
0.000365388
-0.000480772
-0.00121124
-0.000953563
-0.00132356
-0.00190672
-0.00231659
-0.0026339
-0.00319429
-0.00347793
-0.00375522
-0.00410016
-0.00457474
-0.0052147
-0.0056588
-0.00599691
-0.00641374
-0.00672744
-0.00672049
0.0002638
0.000386455
-0.00046382
-0.00121713
-0.000958708
-0.00132747
-0.00192026
-0.00232687
-0.00266368
-0.00321256
-0.00351696
-0.00379869
-0.00416701
-0.00467371
-0.00535426
-0.00587786
-0.00627535
-0.00673244
-0.00710149
-0.0071269
0.000261914
0.000409844
-0.000439989
-0.00122375
-0.00096456
-0.00133241
-0.00193944
-0.00234385
-0.00269728
-0.00323479
-0.00355333
-0.00384433
-0.00423923
-0.00477812
-0.00549657
-0.00609911
-0.0065626
-0.00705526
-0.00746583
-0.00752008
0.000258119
0.000434326
-0.000408338
-0.00123059
-0.000972133
-0.00133948
-0.00197132
-0.00236583
-0.0027312
-0.00326066
-0.00358765
-0.00389077
-0.0043174
-0.00488972
-0.00564143
-0.00631935
-0.00685495
-0.00738298
-0.00782334
-0.0078992
0.000252828
0.000458752
-0.000368393
-0.00123683
-0.000983331
-0.00134965
-0.00201344
-0.0023922
-0.00276346
-0.00329074
-0.00362255
-0.00393724
-0.00440083
-0.00501024
-0.00578996
-0.00653571
-0.00714748
-0.00771532
-0.0081775
-0.0082657
0.000246573
0.000481963
-0.000320802
-0.00124143
-0.00100017
-0.00136238
-0.00206086
-0.00242352
-0.00279344
-0.00332536
-0.00366107
-0.0039833
-0.00448699
-0.00513989
-0.00594448
-0.00674675
-0.00743495
-0.00804989
-0.00853105
-0.00862252
0.000240254
0.000502823
-0.000267291
-0.00124326
-0.00102332
-0.00137678
-0.0021136
-0.00246126
-0.00282091
-0.00336342
-0.00370569
-0.00402961
-0.00457218
-0.00527682
-0.00610811
-0.00695416
-0.00771339
-0.00838194
-0.00888404
-0.00897223
0.000234828
0.000520445
-0.000210033
-0.00124152
-0.0010527
-0.00139283
-0.00217073
-0.00250672
-0.0028458
-0.00340278
-0.00375836
-0.0040784
-0.00465364
-0.00541768
-0.00628276
-0.00716238
-0.00798123
-0.00870552
-0.00923337
-0.00931594
0.000231159
0.000534069
-0.00015138
-0.00123552
-0.00108835
-0.00141472
-0.00223039
-0.0025607
-0.00286887
-0.00344078
-0.00381974
-0.00413243
-0.00473021
-0.00555816
-0.00646735
-0.00737533
-0.00823947
-0.00901585
-0.00957426
-0.00965333
0.000229927
0.000543312
-9.34704e-05
-0.00122521
-0.00112996
-0.0014348
-0.00229078
-0.00262344
-0.00289202
-0.00347484
-0.00388865
-0.00419473
-0.00480253
-0.00569355
-0.00665808
-0.00759486
-0.00849084
-0.00931035
-0.00990166
-0.00998249
0.000231611
0.000548511
-3.7682e-05
-0.00121221
-0.00117725
-0.00145742
-0.00234503
-0.00269409
-0.00291789
-0.00350309
-0.00396245
-0.00426852
-0.00487344
-0.00581984
-0.00684956
-0.00782082
-0.0087385
-0.00958876
-0.0102112
-0.0102999
0.000237113
0.00055024
1.43213e-05
-0.00120011
-0.00123677
-0.00148175
-0.00239078
-0.0027708
-0.0029496
-0.00352469
-0.00403739
-0.00435576
-0.00494736
-0.00593502
-0.00703564
-0.008051
-0.00898535
-0.00985303
-0.0105003
-0.0106011
0.000247061
0.000550503
6.10261e-05
-0.00119399
-0.00131138
-0.00150723
-0.00242358
-0.00285073
-0.00298994
-0.00354
-0.00410879
-0.00445528
-0.00502858
-0.00603933
-0.00721037
-0.0082811
-0.00923319
-0.0101068
-0.0107688
-0.0108821
0.000262448
0.000553366
0.000100172
-0.00119904
-0.00140164
-0.00153601
-0.00244223
-0.00293058
-0.00304098
-0.00355116
-0.00417146
-0.00456311
-0.00512029
-0.00613528
-0.00736914
-0.00850475
-0.00948128
-0.0103536
-0.0110184
-0.0111399
0.000284139
0.000552597
0.000126423
-0.00120531
-0.00149877
-0.00157357
-0.00244881
-0.00300656
-0.00310435
-0.00356201
-0.00422218
-0.00467374
-0.00522407
-0.00622782
-0.00751017
-0.00871516
-0.00972647
-0.0105961
-0.0112522
-0.011374
0.000303612
0.000547056
0.000149392
-0.00120289
-0.00160114
-0.00162613
-0.00244833
-0.00307545
-0.00318093
-0.00357752
-0.00425994
-0.00478085
-0.00533863
-0.00632185
-0.00763379
-0.00890585
-0.00996275
-0.0108344
-0.0114743
-0.0115866
0.000319601
0.000522388
0.000172016
-0.00119174
-0.00170826
-0.00169606
-0.00244448
-0.00313364
-0.00326814
-0.00360229
-0.00428476
-0.00487705
-0.00546008
-0.00642079
-0.00774261
-0.00907231
-0.0101823
-0.011065
-0.0116867
-0.0117808
0.000343175
0.000510505
0.000165481
-0.00118309
-0.00180954
-0.00178269
-0.00244005
-0.00317635
-0.00336041
-0.00363897
-0.00429927
-0.00495632
-0.00558219
-0.00652588
-0.00784096
-0.00921363
-0.0103786
-0.0112823
-0.0118889
-0.0119592
0.000366247
0.000483812
0.000149623
-0.00116906
-0.00190598
-0.00188631
-0.00244154
-0.0032039
-0.0034528
-0.00368927
-0.0043085
-0.00501555
-0.00569645
-0.00663384
-0.00793174
-0.00933048
-0.0105468
-0.0114795
-0.012078
-0.0121233
0.000380824
0.000451144
0.000127981
-0.0011509
-0.00199659
-0.0020063
-0.00245477
-0.00321684
-0.00353883
-0.00375227
-0.00431789
-0.00505504
-0.00579514
-0.00673898
-0.0080166
-0.0094266
-0.0106859
-0.0116521
-0.0122504
-0.0122728
0.000389396
0.000411413
9.69615e-05
-0.00113301
-0.00207903
-0.0021394
-0.00248334
-0.00321687
-0.00361237
-0.00382486
-0.00433282
-0.00507622
-0.00587093
-0.00683345
-0.00809374
-0.0095048
-0.0107966
-0.0117964
-0.0124008
-0.0124048
0.000394112
0.000368751
4.8237e-05
-0.00112329
-0.00215064
-0.00228195
-0.00253118
-0.00320836
-0.0036673
-0.003901
-0.00435557
-0.00508115
-0.0059171
-0.00690713
-0.0081579
-0.0095642
-0.0108784
-0.0119093
-0.0125244
-0.0125151
0.000394886
0.000323632
-2.07571e-05
-0.00112544
-0.00221054
-0.0024281
-0.00259909
-0.00319627
-0.0036996
-0.00397188
-0.00438537
-0.00507536
-0.00593282
-0.00695226
-0.00820218
-0.00960179
-0.0109308
-0.0119879
-0.0126167
-0.0125998
0.000382526
0.000266626
-0.000101401
-0.00113955
-0.00225949
-0.00257204
-0.00268742
-0.00318793
-0.00371018
-0.00402947
-0.00441839
-0.00506353
-0.0059202
-0.00696222
-0.00821722
-0.00961191
-0.0109503
-0.0120282
-0.0126732
-0.0126544
0.000358551
0.000203286
-0.000195444
-0.00116976
-0.00230174
-0.00271015
-0.00279443
-0.00319008
-0.00370231
-0.00406597
-0.00444627
-0.00504545
-0.00588175
-0.00693274
-0.00819375
-0.00958613
-0.0109311
-0.0120269
-0.0126889
-0.0126743
0.000319721
0.000143303
-0.000302836
-0.00121862
-0.00234157
-0.00283925
-0.00291555
-0.00320684
-0.00368071
-0.00407608
-0.00445972
-0.00501783
-0.00581967
-0.00686225
-0.00812355
-0.00951459
-0.0108653
-0.0119789
-0.0126593
-0.0126546
0.000261664
4.91325e-05
-0.000415109
-0.00128683
-0.00238326
-0.00295734
-0.00304558
-0.0032401
-0.00365057
-0.00405825
-0.00445035
-0.004975
-0.00573314
-0.00674949
-0.00799936
-0.0093872
-0.0107448
-0.0118769
-0.0125788
-0.0125885
0.000189661
-3.33747e-05
-0.000553251
-0.00137957
-0.00243193
-0.00306397
-0.00317922
-0.00329009
-0.00361799
-0.00401414
-0.00441152
-0.0049088
-0.0056176
-0.00659092
-0.00781445
-0.00919286
-0.010558
-0.0117104
-0.0124379
-0.0124694
9.53989e-05
-0.000144942
-0.000698786
-0.00149526
-0.00249225
-0.00316056
-0.00331214
-0.00335604
-0.00358839
-0.00394651
-0.00433741
-0.00480841
-0.00546448
-0.0063803
-0.0075612
-0.00891957
-0.0102891
-0.011465
-0.0122239
-0.0122873
-2.83601e-05
-0.000270196
-0.000854147
-0.00163209
-0.00256951
-0.0032515
-0.00344182
-0.00343603
-0.00356558
-0.00385819
-0.00422375
-0.00466368
-0.00526318
-0.0061096
-0.00723002
-0.00855255
-0.00991752
-0.0111172
-0.0119159
-0.0120173
-0.000181074
-0.000423052
-0.0010181
-0.00178943
-0.00266798
-0.00334372
-0.00356797
-0.00352852
-0.00355445
-0.0037553
-0.0040703
-0.00446652
-0.00500138
-0.00576538
-0.00680467
-0.00806874
-0.00941208
-0.0106323
-0.0114736
-0.0116299
-0.000360914
-0.000591913
-0.00120535
-0.00196796
-0.00278884
-0.00344507
-0.00369272
-0.00363258
-0.00356257
-0.00364981
-0.00388274
-0.00421194
-0.00466553
-0.00532855
-0.00625967
-0.00743716
-0.00874012
-0.00996528
-0.0108572
-0.0110927
-0.000570522
-0.000788035
-0.00140902
-0.00216533
-0.00293237
-0.00356127
-0.00381932
-0.00374472
-0.00359735
-0.00356335
-0.00367842
-0.00390275
-0.00424338
-0.004775
-0.00556414
-0.00661762
-0.00784646
-0.00906677
-0.01002
-0.0103659
-0.000837123
-0.00101479
-0.00161677
-0.00234783
-0.00309363
-0.00369661
-0.00395101
-0.00386246
-0.00365496
-0.00351534
-0.00348385
-0.00355058
-0.00372282
-0.0040637
-0.00466178
-0.00553995
-0.00665096
-0.00784696
-0.00887721
-0.00938425
-0.0011661
-0.0013958
-0.00183154
-0.00250248
-0.0032735
-0.00384654
-0.00408143
-0.00398198
-0.00373039
-0.00351118
-0.00334887
-0.00320219
-0.00311373
-0.00315392
-0.00343228
-0.00403694
-0.00495339
-0.00608178
-0.00722138
-0.00799765
-0.00145734
-0.00161259
-0.00217546
-0.00287032
-0.00352593
-0.00400628
-0.00420448
-0.00410303
-0.00382068
-0.00354849
-0.00332618
-0.00303748
-0.00258446
-0.00206541
-0.00172431
-0.00176256
-0.00224227
-0.00307608
-0.00409721
-0.00507545
-0.00181328
-0.00197008
-0.00254261
-0.00322429
-0.00379306
-0.00416979
-0.00431654
-0.00423031
-0.00393636
-0.00355805
-0.00331709
-0.00320807
-0.00268342
-0.00159262
-0.000549483
5.14045e-05
0.00025455
0.000341124
0.000509003
0.000719571
-0.00228067
-0.00242468
-0.00292315
-0.00355697
-0.00403991
-0.00431933
-0.00440603
-0.00433172
-0.00412262
-0.00351988
-0.00245049
-0.0013999
-0.000518468
0.000214458
0.000851825
0.00147795
0.00216103
0.00287272
0.00347909
0.00364745
-0.00280945
-0.00292518
-0.00336508
-0.0038951
-0.00425302
-0.00441312
-0.00444679
-0.00404437
-0.0031622
-0.00220767
-0.00138861
-0.000729532
-0.000152591
0.000512383
0.00136395
0.00236457
0.0034114
0.0043628
0.00501687
0.00505052
-0.00345322
-0.00349145
-0.00381203
-0.00419969
-0.00441409
-0.00416108
-0.00365505
-0.0030786
-0.00248403
-0.00189011
-0.00129288
-0.00063302
0.000142314
0.00107705
0.00217258
0.00336328
0.00454244
0.00556245
0.00619621
0.00612122
-0.00427709
-0.0043476
-0.00418254
-0.00400016
-0.00379997
-0.00350515
-0.00315028
-0.00278373
-0.00234856
-0.00178758
-0.00108837
-0.000260151
0.000697928
0.00177938
0.00296342
0.00420793
0.00541544
0.0064264
0.00701683
0.00686574
-0.00498393
-0.00492513
-0.00445626
-0.0039062
-0.00346881
-0.00315231
-0.00286999
-0.00254839
-0.002111
-0.00150361
-0.000724148
0.000197922
0.00123786
0.00237806
0.00359988
0.00485514
0.00605158
0.00703857
0.00759125
0.0073852
-0.00552431
-0.00535561
-0.00474506
-0.00399184
-0.00335705
-0.00290972
-0.00257025
-0.00221737
-0.00175697
-0.00113595
-0.000343416
0.000604467
0.00167863
0.00285359
0.00409914
0.00536225
0.00655024
0.0075149
0.00803292
0.00778051
-0.00598105
-0.00573501
-0.00501757
-0.00410946
-0.00329868
-0.00270252
-0.00226818
-0.00187315
-0.00140666
-0.000794621
-7.47096e-06
0.000945822
0.00203896
0.00323902
0.00450386
0.00577286
0.00695153
0.00789368
0.00837912
0.00808691
-0.00637062
-0.00606952
-0.00524175
-0.00421004
-0.00326068
-0.00253709
-0.00201491
-0.00157697
-0.00110063
-0.000494745
0.000284066
0.00123872
0.00234388
0.0035595
0.00483573
0.00610616
0.00727448
0.00819599
0.00865342
0.00832875
-0.00668084
-0.00632731
-0.00543132
-0.00430327
-0.00324501
-0.00241939
-0.00182089
-0.00133967
-0.000845104
-0.000238063
0.000535042
0.0014851
0.00259127
0.00381333
0.00509464
0.00636423
0.00752371
0.00842885
0.00886454
0.00851538
-0.00691224
-0.00652858
-0.00558004
-0.00438695
-0.00325453
-0.00235601
-0.00169654
-0.00117033
-0.000646442
-2.13291e-05
0.000760479
0.00171266
0.00281734
0.00403537
0.00531263
0.00657645
0.00772643
0.008618
0.00903719
0.00867009
-0.00705669
-0.00666361
-0.00569144
-0.00446584
-0.00329563
-0.00235781
-0.00166117
-0.00110134
-0.000550556
9.47604e-05
0.0008944
0.00186384
0.00298361
0.00421192
0.00549169
0.00675056
0.00789067
0.00877126
0.00918145
0.00880799
0.00947063
0.00430369
-0.00325294
-0.00843126
-0.00948039
-0.00826228
-0.00680916
-0.00578766
-0.00518478
-0.00487702
-0.00476996
-0.00478906
-0.00487717
-0.00500148
-0.00514644
-0.00530164
-0.00545792
-0.00560974
-0.00575572
-0.00589661
-0.00603287
-0.006164
-0.00628905
-0.00640824
-0.00652336
-0.00663689
-0.00675037
-0.00686409
-0.0069776
-0.00709062
-0.00720344
-0.00731688
-0.00743147
-0.00754692
-0.00766218
-0.00777625
-0.0078889
-0.00800027
-0.00811025
-0.00821823
-0.00832358
-0.00842614
-0.00852623
-0.00862418
-0.00872022
-0.00881447
-0.00890693
-0.00899762
-0.00908685
-0.00917511
-0.00926291
-0.00935025
-0.00943686
-0.00952255
-0.00960758
-0.00969235
-0.00977708
-0.00986168
-0.00994587
-0.0100297
-0.0101135
-0.0101974
-0.0102811
-0.0103647
-0.010448
-0.0105313
-0.0106146
-0.010698
-0.0107811
-0.010864
-0.0109467
-0.0110296
-0.0111126
-0.0111958
-0.0112788
-0.0113618
-0.0114449
-0.0115281
-0.0116114
-0.0116946
-0.0117779
-0.0118611
-0.0119446
-0.0120279
-0.0121113
-0.0121947
-0.0122785
-0.0123625
-0.0124467
-0.0125309
-0.0126154
-0.0127003
-0.0127858
-0.0128716
-0.0129578
-0.0130443
-0.0131314
-0.013219
-0.0133069
-0.0133954
-0.0134841
-0.0135733
-0.0136627
-0.0137525
-0.0138426
-0.0139332
-0.014024
-0.0141152
-0.0142067
-0.0142985
-0.0143908
-0.0144832
-0.0145761
-0.0146692
-0.0147627
-0.0148563
-0.0149505
-0.0150448
-0.0151398
-0.015235
-0.0153307
-0.0154267
-0.0155233
-0.0156204
-0.0157179
-0.015816
-0.0159142
-0.0160131
-0.0161122
-0.0162121
-0.016312
-0.0164127
-0.0165135
-0.016615
-0.016717
-0.0168194
-0.0169224
-0.0170255
-0.0171297
-0.0172336
-0.0173389
-0.0174438
-0.0175498
-0.0176558
-0.0177627
-0.0178704
-0.0179782
-0.0180869
-0.0181952
-0.0183054
-0.018415
-0.0185259
-0.0186362
-0.018748
-0.0188601
-0.0189727
-0.0190863
-0.0191995
-0.0193148
-0.0194292
-0.0195456
-0.0196609
-0.0197779
-0.0198954
-0.020013
-0.0201321
-0.0202501
-0.0203711
-0.0204903
-0.0206121
-0.0207329
-0.0208552
-0.0209786
-0.021101
-0.0212266
-0.0213499
-0.0214773
-0.0216026
-0.0217298
-0.0218578
-0.0219847
-0.0221156
-0.0222424
-0.0223749
-0.0225038
-0.022636
-0.022768
-0.0228988
-0.0230342
-0.0231649
-0.0233006
-0.0234334
-0.0235663
-0.0237029
-0.0238303
-0.0239674
-0.0240884
-0.0242165
-0.0243208
-0.0244159
0.00868067
0.00412463
-0.00317206
-0.00830028
-0.00940334
-0.00822539
-0.00678582
-0.00577102
-0.00517263
-0.00486766
-0.00476232
-0.00478254
-0.00487144
-0.00499635
-0.0051418
-0.00529743
-0.00545408
-0.00560623
-0.0057525
-0.00589366
-0.00603016
-0.00616151
-0.00628676
-0.00640613
-0.00652141
-0.00663507
-0.00674867
-0.0068625
-0.00697611
-0.00708921
-0.00720211
-0.00731562
-0.00743028
-0.00754578
-0.00766109
-0.00777522
-0.00788791
-0.00799932
-0.00810935
-0.00821736
-0.00832275
-0.00842534
-0.00852547
-0.00862344
-0.00871952
-0.00881378
-0.00890628
-0.00899699
-0.00908624
-0.00917453
-0.00926235
-0.00934971
-0.00943633
-0.00952204
-0.00960709
-0.00969188
-0.00977663
-0.00986124
-0.00994544
-0.0100293
-0.0101131
-0.010197
-0.0102807
-0.0103643
-0.0104476
-0.010531
-0.0106143
-0.0106977
-0.0107808
-0.0108637
-0.0109464
-0.0110293
-0.0111124
-0.0111955
-0.0112785
-0.0113615
-0.0114446
-0.0115278
-0.0116112
-0.0116944
-0.0117777
-0.0118609
-0.0119443
-0.0120277
-0.0121111
-0.0121945
-0.0122783
-0.0123623
-0.0124465
-0.0125307
-0.0126152
-0.0127001
-0.0127856
-0.0128715
-0.0129576
-0.0130442
-0.0131312
-0.0132189
-0.0133068
-0.0133952
-0.0134839
-0.0135732
-0.0136625
-0.0137524
-0.0138424
-0.0139331
-0.0140239
-0.0141151
-0.0142066
-0.0142984
-0.0143907
-0.0144831
-0.014576
-0.0146691
-0.0147626
-0.0148562
-0.0149504
-0.0150447
-0.0151397
-0.0152349
-0.0153306
-0.0154266
-0.0155232
-0.0156204
-0.0157179
-0.0158159
-0.0159141
-0.0160131
-0.0161121
-0.016212
-0.0163119
-0.0164126
-0.0165134
-0.0166149
-0.0167169
-0.0168193
-0.0169224
-0.0170255
-0.0171296
-0.0172336
-0.0173388
-0.0174437
-0.0175498
-0.0176557
-0.0177627
-0.0178703
-0.0179782
-0.0180868
-0.0181952
-0.0183053
-0.0184149
-0.0185258
-0.0186362
-0.0187479
-0.0188601
-0.0189727
-0.0190863
-0.0191994
-0.0193147
-0.0194291
-0.0195455
-0.0196609
-0.0197779
-0.0198953
-0.020013
-0.0201321
-0.02025
-0.020371
-0.0204903
-0.020612
-0.0207328
-0.0208552
-0.0209786
-0.021101
-0.0212265
-0.0213499
-0.0214773
-0.0216026
-0.0217298
-0.0218578
-0.0219846
-0.0221156
-0.0222424
-0.0223749
-0.0225037
-0.0226359
-0.022768
-0.0228988
-0.0230342
-0.0231649
-0.0233006
-0.0234334
-0.0235663
-0.0237028
-0.0238303
-0.0239674
-0.0240884
-0.0242165
-0.0243207
-0.0244159
0.00786197
0.00395149
-0.00299059
-0.00804888
-0.00926182
-0.00816891
-0.00675532
-0.00574775
-0.00515441
-0.00485378
-0.00475169
-0.00477414
-0.00486454
-0.00499047
-0.00513666
-0.00529284
-0.00544994
-0.00560247
-0.00574907
-0.00589051
-0.00602727
-0.00615885
-0.00628431
-0.00640388
-0.00651934
-0.00663316
-0.00674691
-0.00686086
-0.00697458
-0.00708778
-0.00720077
-0.00731435
-0.00742908
-0.00754465
-0.00766002
-0.0077742
-0.00788693
-0.00799839
-0.00810846
-0.00821651
-0.00832193
-0.00842456
-0.00852472
-0.00862272
-0.00871883
-0.00881312
-0.00890564
-0.00899638
-0.00908565
-0.00917396
-0.00926179
-0.00934918
-0.00943582
-0.00952154
-0.00960661
-0.00969141
-0.00977618
-0.00986081
-0.00994502
-0.0100289
-0.0101127
-0.0101966
-0.0102804
-0.0103639
-0.0104473
-0.0105306
-0.010614
-0.0106974
-0.0107805
-0.0108634
-0.0109461
-0.011029
-0.0111121
-0.0111952
-0.0112783
-0.0113613
-0.0114444
-0.0115276
-0.0116109
-0.0116942
-0.0117774
-0.0118607
-0.0119441
-0.0120275
-0.0121109
-0.0121943
-0.0122781
-0.0123621
-0.0124463
-0.0125305
-0.012615
-0.0127
-0.0127855
-0.0128713
-0.0129574
-0.013044
-0.0131311
-0.0132187
-0.0133067
-0.0133951
-0.0134838
-0.013573
-0.0136624
-0.0137523
-0.0138423
-0.013933
-0.0140238
-0.014115
-0.0142065
-0.0142983
-0.0143905
-0.014483
-0.0145759
-0.014669
-0.0147625
-0.0148561
-0.0149503
-0.0150446
-0.0151396
-0.0152348
-0.0153305
-0.0154265
-0.0155231
-0.0156203
-0.0157178
-0.0158158
-0.015914
-0.016013
-0.016112
-0.016212
-0.0163118
-0.0164125
-0.0165133
-0.0166149
-0.0167169
-0.0168192
-0.0169223
-0.0170254
-0.0171296
-0.0172335
-0.0173387
-0.0174437
-0.0175497
-0.0176557
-0.0177626
-0.0178703
-0.0179781
-0.0180868
-0.0181951
-0.0183053
-0.0184149
-0.0185258
-0.0186361
-0.0187479
-0.01886
-0.0189726
-0.0190862
-0.0191994
-0.0193147
-0.0194291
-0.0195455
-0.0196608
-0.0197778
-0.0198953
-0.020013
-0.020132
-0.02025
-0.020371
-0.0204902
-0.020612
-0.0207328
-0.0208551
-0.0209785
-0.021101
-0.0212265
-0.0213499
-0.0214772
-0.0216025
-0.0217298
-0.0218577
-0.0219846
-0.0221156
-0.0222424
-0.0223748
-0.0225037
-0.0226359
-0.022768
-0.0228988
-0.0230342
-0.0231648
-0.0233006
-0.0234333
-0.0235662
-0.0237028
-0.0238302
-0.0239673
-0.0240884
-0.0242165
-0.0243207
-0.0244159
0.00708771
0.00379946
-0.00273662
-0.00771264
-0.00906296
-0.00808813
-0.00671198
-0.00571297
-0.00512619
-0.00483258
-0.00473617
-0.00476252
-0.00485543
-0.00498303
-0.00513032
-0.00528727
-0.00544494
-0.00559793
-0.00574493
-0.00588672
-0.00602377
-0.0061556
-0.00628132
-0.00640114
-0.00651685
-0.0066309
-0.00674484
-0.00685896
-0.00697282
-0.00708616
-0.00719927
-0.00731296
-0.00742778
-0.00754342
-0.00765887
-0.0077731
-0.0078859
-0.00799741
-0.00810752
-0.00821562
-0.00832108
-0.00842374
-0.00852394
-0.00862198
-0.00871811
-0.00881243
-0.00890498
-0.00899574
-0.00908504
-0.00917337
-0.00926123
-0.00934863
-0.00943529
-0.00952104
-0.00960612
-0.00969094
-0.00977572
-0.00986037
-0.00994459
-0.0100285
-0.0101123
-0.0101962
-0.01028
-0.0103636
-0.0104469
-0.0105303
-0.0106137
-0.010697
-0.0107802
-0.0108631
-0.0109458
-0.0110287
-0.0111118
-0.011195
-0.011278
-0.011361
-0.0114441
-0.0115274
-0.0116107
-0.011694
-0.0117772
-0.0118605
-0.0119439
-0.0120273
-0.0121107
-0.0121942
-0.012278
-0.0123619
-0.0124462
-0.0125304
-0.0126149
-0.0126998
-0.0127853
-0.0128711
-0.0129573
-0.0130439
-0.013131
-0.0132186
-0.0133065
-0.013395
-0.0134837
-0.0135729
-0.0136623
-0.0137521
-0.0138422
-0.0139328
-0.0140237
-0.0141149
-0.0142064
-0.0142982
-0.0143904
-0.0144829
-0.0145758
-0.0146689
-0.0147624
-0.014856
-0.0149502
-0.0150445
-0.0151395
-0.0152347
-0.0153304
-0.0154264
-0.015523
-0.0156202
-0.0157177
-0.0158158
-0.0159139
-0.0160129
-0.0161119
-0.0162119
-0.0163118
-0.0164124
-0.0165133
-0.0166148
-0.0167168
-0.0168192
-0.0169223
-0.0170253
-0.0171295
-0.0172335
-0.0173387
-0.0174436
-0.0175497
-0.0176556
-0.0177626
-0.0178702
-0.0179781
-0.0180867
-0.0181951
-0.0183052
-0.0184148
-0.0185257
-0.0186361
-0.0187478
-0.01886
-0.0189726
-0.0190862
-0.0191993
-0.0193146
-0.0194291
-0.0195455
-0.0196608
-0.0197778
-0.0198953
-0.0200129
-0.020132
-0.02025
-0.020371
-0.0204902
-0.020612
-0.0207328
-0.0208551
-0.0209785
-0.0211009
-0.0212265
-0.0213498
-0.0214772
-0.0216025
-0.0217297
-0.0218577
-0.0219846
-0.0221156
-0.0222423
-0.0223748
-0.0225037
-0.0226359
-0.022768
-0.0228988
-0.0230341
-0.0231648
-0.0233006
-0.0234333
-0.0235662
-0.0237028
-0.0238302
-0.0239673
-0.0240883
-0.0242165
-0.0243207
-0.0244158
0.00634527
0.00363128
-0.00246426
-0.00734521
-0.00883885
-0.00799632
-0.00666234
-0.00566987
-0.00508882
-0.00480358
-0.00471475
-0.0047465
-0.004843
-0.00497299
-0.00512191
-0.00527994
-0.00543837
-0.00559196
-0.0057395
-0.00588173
-0.00601912
-0.00615124
-0.00627724
-0.00639739
-0.00651345
-0.00662784
-0.00674207
-0.00685643
-0.0069705
-0.00708404
-0.00719734
-0.0073112
-0.00742615
-0.00754191
-0.00765745
-0.00777178
-0.00788465
-0.00799623
-0.00810641
-0.00821455
-0.00832007
-0.00842278
-0.00852303
-0.00862111
-0.00871728
-0.00881163
-0.00890421
-0.00899501
-0.00908433
-0.0091727
-0.00926058
-0.00934801
-0.00943469
-0.00952046
-0.00960556
-0.0096904
-0.00977521
-0.00985987
-0.00994411
-0.010028
-0.0101119
-0.0101958
-0.0102796
-0.0103632
-0.0104465
-0.0105299
-0.0106133
-0.0106967
-0.0107798
-0.0108627
-0.0109455
-0.0110284
-0.0111115
-0.0111947
-0.0112777
-0.0113607
-0.0114438
-0.0115271
-0.0116104
-0.0116937
-0.011777
-0.0118603
-0.0119437
-0.0120271
-0.0121105
-0.0121939
-0.0122778
-0.0123617
-0.012446
-0.0125302
-0.0126147
-0.0126996
-0.0127851
-0.012871
-0.0129571
-0.0130437
-0.0131308
-0.0132184
-0.0133064
-0.0133948
-0.0134835
-0.0135728
-0.0136621
-0.013752
-0.0138421
-0.0139327