/*--------------------------------*- C++ -*----------------------------------*\
| =========                 |                                                 |
| \\      /  F ield         | OpenFOAM: The Open Source CFD Toolbox           |
|  \\    /   O peration     | Version:  v2012                                 |
|   \\  /    A nd           | Website:  www.openfoam.com                      |
|    \\/     M anipulation  |                                                 |
\*---------------------------------------------------------------------------*/
FoamFile
{
    version     2.0;
    format      ascii;
    class       surfaceScalarField;
    location    "4.2";
    object      phi;
}
// * * * * * * * * * * * * * * * * * * * * * * * * * * * * * * * * * * * * * //

dimensions      [0 3 -1 0 0 0 0];
oriented        oriented;


internalField   nonuniform List<scalar> 
34900
(
1.17566e-06
-1.66182e-07
1.17283e-06
1.02008e-07
1.18099e-06
2.30997e-07
1.17026e-06
7.85798e-08
1.17008e-06
8.40709e-08
1.15989e-06
-4.19866e-08
1.16135e-06
4.85135e-08
1.15294e-06
-5.04947e-08
1.1566e-06
8.85842e-08
1.14634e-06
-1.09733e-07
1.15293e-06
1.51351e-07
1.1385e-06
-1.57952e-07
1.14888e-06
1.81633e-07
1.13075e-06
-1.29976e-07
1.14271e-06
1.40292e-07
1.1229e-06
-7.10343e-08
1.13516e-06
1.0347e-07
1.11341e-06
-4.213e-08
1.12225e-06
8.95087e-08
-2.0475e-08
1.07656e-06
1.2315e-06
-1.73417e-07
1.23039e-06
1.03112e-07
1.23675e-06
2.24639e-07
1.2284e-06
8.6932e-08
1.22529e-06
8.71754e-08
1.21751e-06
-3.42028e-08
1.21567e-06
5.03523e-08
1.21038e-06
-4.52077e-08
1.20991e-06
8.90528e-08
1.20386e-06
-1.03677e-07
1.20436e-06
1.50845e-07
1.1962e-06
-1.49788e-07
1.19744e-06
1.80397e-07
1.19056e-06
-1.23104e-07
1.18856e-06
1.42299e-07
1.18717e-06
-6.96524e-08
1.17843e-06
1.12216e-07
1.18335e-06
-4.70538e-08
1.16191e-06
1.10956e-07
-1.98731e-08
1.1613e-06
1.28844e-06
-1.79076e-07
1.29173e-06
9.98193e-08
1.29392e-06
2.22459e-07
1.29074e-06
9.01031e-08
1.2831e-06
9.4817e-08
1.27948e-06
-3.05823e-08
1.27262e-06
5.72106e-08
1.27201e-06
-4.45937e-08
1.26644e-06
9.46188e-08
1.26547e-06
-1.02706e-07
1.26078e-06
1.55539e-07
1.25835e-06
-1.47359e-07
1.2545e-06
1.84244e-07
1.25398e-06
-1.22581e-07
1.24826e-06
1.48016e-07
1.25071e-06
-7.2094e-08
1.24374e-06
1.19183e-07
1.24485e-06
-4.81667e-08
1.23654e-06
1.19262e-07
-3.84813e-09
1.22052e-06
1.34658e-06
-1.81549e-07
1.35434e-06
9.20532e-08
1.35266e-06
2.24137e-07
1.35506e-06
8.77082e-08
1.34385e-06
1.06027e-07
1.34372e-06
-3.04548e-08
1.33338e-06
6.75479e-08
1.33548e-06
-4.6688e-08
1.32787e-06
1.02225e-07
1.3289e-06
-1.03734e-07
1.32382e-06
1.60623e-07
1.3226e-06
-1.46147e-07
1.32014e-06
1.86707e-07
1.31929e-06
-1.21734e-07
1.31725e-06
1.50063e-07
1.31629e-06
-7.11407e-08
1.31553e-06
1.19946e-07
1.31077e-06
-4.34018e-08
1.30954e-06
1.20488e-07
1.60576e-08
1.28964e-06
1.40691e-06
-1.80103e-07
1.41704e-06
8.19231e-08
1.41344e-06
2.27738e-07
1.41977e-06
8.13707e-08
1.408e-06
1.17801e-07
1.40914e-06
-3.15979e-08
1.39862e-06
7.8071e-08
1.40051e-06
-4.85735e-08
1.39434e-06
1.08394e-07
1.3945e-06
-1.039e-07
1.39194e-06
1.63185e-07
1.38955e-06
-1.43753e-07
1.39003e-06
1.86224e-07
1.38735e-06
-1.19052e-07
1.38849e-06
1.48922e-07
1.38497e-06
-6.76197e-08
1.38694e-06
1.1797e-07
1.37967e-06
-3.61299e-08
1.38055e-06
1.19611e-07
3.61264e-08
1.36048e-06
1.47089e-06
-1.75313e-07
1.48043e-06
7.23814e-08
1.47733e-06
2.30832e-07
1.4852e-06
7.35011e-08
1.47589e-06
1.27115e-07
1.47649e-06
-3.21938e-08
1.4682e-06
8.63559e-08
1.46848e-06
-4.88532e-08
1.46496e-06
1.11915e-07
1.46365e-06
-1.02586e-07
1.46347e-06
1.63358e-07
1.45995e-06
-1.40232e-07
1.46227e-06
1.83901e-07
1.45837e-06
-1.15152e-07
1.46113e-06
1.46167e-07
1.4562e-06
-6.26907e-08
1.45951e-06
1.14663e-07
1.45061e-06
-2.72286e-08
1.45298e-06
1.17236e-07
5.60904e-08
1.43302e-06
1.53963e-06
-1.68724e-07
1.54642e-06
6.55892e-08
1.54541e-06
2.31839e-07
1.55297e-06
6.59478e-08
1.54748e-06
1.32604e-07
1.5471e-06
-3.1819e-08
1.5416e-06
9.18555e-08
1.54057e-06
-4.78185e-08
1.53912e-06
1.1336e-07
1.53694e-06
-1.00405e-07
1.53815e-06
1.6215e-07
1.53405e-06
-1.36134e-07
1.53737e-06
1.80582e-07
1.53267e-06
-1.10451e-07
1.5365e-06
1.42334e-07
1.53043e-06
-5.66158e-08
1.53491e-06
1.10182e-07
1.52448e-06
-1.67964e-08
1.5281e-06
1.13616e-07
7.55014e-08
1.50869e-06
1.61339e-06
-1.61984e-07
1.61693e-06
6.20478e-08
1.6182e-06
2.30572e-07
1.62465e-06
5.94979e-08
1.62258e-06
1.34673e-07
1.62178e-06
-3.10192e-08
1.6185e-06
9.51304e-08
1.61702e-06
-4.63314e-08
1.61678e-06
1.13601e-07
1.61433e-06
-9.79635e-08
1.61631e-06
1.60172e-07
1.6119e-06
-1.31724e-07
1.61599e-06
1.76491e-07
1.61055e-06
-1.05012e-07
1.61542e-06
1.37471e-07
1.60818e-06
-4.9381e-08
1.61379e-06
1.04571e-07
1.60199e-06
-4.99121e-09
1.6064e-06
1.09207e-07
9.3748e-08
1.58815e-06
1.69169e-06
-1.56102e-07
1.69289e-06
6.08525e-08
1.6957e-06
2.27765e-07
1.70101e-06
5.41797e-08
1.70115e-06
1.34533e-07
1.70058e-06
-3.04411e-08
1.69883e-06
9.68738e-08
1.69751e-06
-4.50103e-08
1.69795e-06
1.13157e-07
1.69551e-06
-9.55232e-08
1.69806e-06
1.57627e-07
1.69337e-06
-1.27037e-07
1.69827e-06
1.71593e-07
1.69203e-06
-9.87726e-08
1.69799e-06
1.31516e-07
1.68956e-06
-4.0953e-08
1.69619e-06
9.79433e-08
1.68329e-06
7.90285e-09
1.68795e-06
1.04549e-07
1.10246e-07
1.67145e-06
1.77393e-06
-1.51313e-07
1.77418e-06
6.0604e-08
1.77767e-06
2.24279e-07
1.7821e-06
4.97502e-08
1.78331e-06
1.3332e-07
1.78324e-06
-3.03744e-08
1.78256e-06
9.75516e-08
1.78163e-06
-4.40789e-08
1.78256e-06
1.12233e-07
1.78015e-06
-9.31137e-08
1.78324e-06
1.54534e-07
1.77822e-06
-1.22013e-07
1.78401e-06
1.65796e-07
1.77688e-06
-9.16424e-08
1.78399e-06
1.24413e-07
1.77439e-06
-3.13535e-08
1.78181e-06
9.05156e-08
1.76825e-06
2.14617e-08
1.77256e-06
1.00242e-07
1.24478e-07
1.75833e-06
1.85981e-06
-1.47375e-07
1.8602e-06
6.02145e-08
1.86384e-06
2.20642e-07
1.86763e-06
4.59576e-08
1.8692e-06
1.31749e-07
1.8696e-06
-3.07754e-08
1.86971e-06
9.74459e-08
1.86913e-06
-4.35049e-08
1.87048e-06
1.10884e-07
1.86803e-06
-9.06582e-08
1.87171e-06
1.50849e-07
1.86625e-06
-1.16546e-07
1.87302e-06
1.59021e-07
1.86494e-06
-8.35572e-08
1.87317e-06
1.16176e-07
1.86253e-06
-2.07071e-08
1.87042e-06
8.26187e-08
1.85674e-06
3.51452e-08
1.86009e-06
9.68942e-08
1.36051e-07
1.84852e-06
1.94941e-06
-1.43946e-07
1.95043e-06
5.91904e-08
1.95405e-06
2.1703e-07
1.95741e-06
4.25899e-08
1.95901e-06
1.30152e-07
1.95969e-06
-3.14579e-08
1.96039e-06
9.6745e-08
1.96003e-06
-4.31431e-08
1.96181e-06
1.09108e-07
1.95919e-06
-8.80359e-08
1.96353e-06
1.46503e-07
1.95751e-06
-1.10524e-07
1.96531e-06
1.51224e-07
1.95626e-06
-7.4507e-08
1.96551e-06
1.0692e-07
1.95407e-06
-9.2642e-09
1.96199e-06
7.46939e-08
1.94878e-06
4.83559e-08
1.95064e-06
9.50386e-08
1.4478e-07
1.94191e-06
2.04302e-06
-1.40772e-07
2.04471e-06
5.7493e-08
2.04831e-06
2.13434e-07
2.05143e-06
3.94706e-08
2.05296e-06
1.2862e-07
2.05374e-06
-3.2233e-08
2.05491e-06
9.55735e-08
2.05458e-06
-4.28199e-08
2.05681e-06
1.06878e-07
2.05389e-06
-8.51123e-08
2.05897e-06
1.41425e-07
2.05229e-06
-1.03843e-07
2.0611e-06
1.42406e-07
2.05115e-06
-6.45519e-08
2.0612e-06
9.68665e-08
2.04933e-06
2.60515e-09
2.05677e-06
6.72563e-08
2.0446e-06
6.05276e-08
2.04464e-06
9.49993e-08
1.50768e-07
2.03865e-06
2.14095e-06
-1.37723e-07
2.14316e-06
5.52884e-08
2.1468e-06
2.09794e-07
2.1498e-06
3.64659e-08
2.1513e-06
1.27118e-07
2.15203e-06
-3.29582e-08
2.15361e-06
9.39923e-08
2.15316e-06
-4.23715e-08
2.15589e-06
1.04148e-07
2.15254e-06
-8.17573e-08
2.15841e-06
1.3555e-07
2.151e-06
-9.64294e-08
2.16079e-06
1.32616e-07
2.15006e-06
-5.38288e-08
2.1606e-06
8.63354e-08
2.14877e-06
1.44344e-08
2.15518e-06
6.08461e-08
2.14451e-06
7.11913e-08
2.14266e-06
9.6856e-08
1.54384e-07
2.13904e-06
2.24351e-06
-1.34749e-07
2.24602e-06
5.27797e-08
2.24977e-06
2.0605e-07
2.25274e-06
3.34954e-08
2.2543e-06
1.25557e-07
2.25487e-06
-3.35319e-08
2.25686e-06
9.2002e-08
2.25615e-06
-4.16548e-08
2.25944e-06
1.00854e-07
2.25554e-06
-7.78568e-08
2.26226e-06
1.28829e-07
2.25409e-06
-8.82574e-08
2.26474e-06
1.21962e-07
2.25347e-06
-4.25598e-08
2.26409e-06
7.57195e-08
2.25279e-06
2.57353e-08
2.25769e-06
5.59474e-08
2.24885e-06
8.00287e-08
2.24524e-06
1.00465e-07
1.56177e-07
2.24345e-06
2.35097e-06
-1.31842e-07
2.3536e-06
5.01445e-08
2.35751e-06
2.02142e-07
2.36048e-06
3.05309e-08
2.36221e-06
1.23826e-07
2.36255e-06
-3.38704e-08
2.36499e-06
8.95564e-08
2.36388e-06
-4.0544e-08
2.36781e-06
9.69232e-08
2.36328e-06
-7.33228e-08
2.37087e-06
1.2124e-07
2.36197e-06
-7.93648e-08
2.37331e-06
1.10624e-07
2.36181e-06
-3.1055e-08
2.37207e-06
6.54611e-08
2.36175e-06
3.60528e-08
2.36478e-06
5.2912e-08
2.35788e-06
8.69279e-08
2.35287e-06
1.05485e-07
1.5678e-07
2.35226e-06
2.46357e-06
-1.29016e-07
2.46618e-06
4.75305e-08
2.47032e-06
1.98003e-07
2.47327e-06
2.75881e-08
2.47528e-06
1.21808e-07
2.4753e-06
-3.3889e-08
2.47828e-06
8.65782e-08
2.47666e-06
-3.89265e-08
2.4813e-06
9.22835e-08
2.47608e-06
-6.81042e-08
2.48451e-06
1.12809e-07
2.47502e-06
-6.98704e-08
2.48678e-06
9.88618e-08
2.47543e-06
-1.97037e-08
2.48487e-06
5.60175e-08
2.47591e-06
4.50206e-08
2.47691e-06
5.19034e-08
2.47183e-06
9.20107e-08
2.46591e-06
1.11409e-07
1.56821e-07
2.46587e-06
2.58157e-06
-1.26294e-07
2.58404e-06
4.50653e-08
2.58849e-06
1.93553e-07
2.59136e-06
2.47173e-08
2.59379e-06
1.19378e-07
2.59339e-06
-3.34938e-08
2.597e-06
8.29744e-08
2.59478e-06
-3.67049e-08
2.60018e-06
8.68809e-08
2.59428e-06
-6.22012e-08
2.60346e-06
1.03626e-07
2.59357e-06
-5.99831e-08
2.60542e-06
8.70138e-08
2.59465e-06
-8.93303e-09
2.60286e-06
4.78055e-08
2.59548e-06
5.24052e-08
2.59451e-06
5.28685e-08
2.59092e-06
9.56056e-08
2.58467e-06
1.17655e-07
1.56853e-07
2.58464e-06
2.70524e-06
-1.23705e-07
2.70744e-06
4.28657e-08
2.7123e-06
1.88692e-07
2.71502e-06
2.19966e-08
2.71799e-06
1.16407e-07
2.71708e-06
-3.2584e-08
2.72141e-06
7.86517e-08
2.71851e-06
-3.3808e-08
2.72469e-06
8.07003e-08
2.71817e-06
-5.56825e-08
2.72794e-06
9.38617e-08
2.71795e-06
-4.99998e-08
2.72951e-06
7.546e-08
2.71972e-06
8.48027e-10
2.72638e-06
4.11459e-08
2.72065e-06
5.81349e-08
2.71797e-06
5.55554e-08
2.71541e-06
9.81656e-08
2.70938e-06
1.23682e-07
1.57268e-07
2.70897e-06
2.83484e-06
-1.21279e-07
2.83666e-06
4.10446e-08
2.84205e-06
1.83302e-07
2.84453e-06
1.95236e-08
2.84817e-06
1.12763e-07
2.84665e-06
-3.10621e-08
2.85177e-06
7.35336e-08
2.84817e-06
-3.02074e-08
2.85508e-06
7.37884e-08
2.8481e-06
-4.87051e-08
2.85819e-06
8.37735e-08
2.84847e-06
-4.02834e-08
2.85935e-06
6.45768e-08
2.85089e-06
9.31234e-09
2.85583e-06
3.62026e-08
2.85164e-06
6.23313e-08
2.84761e-06
5.95783e-08
2.84563e-06
1.00146e-07
2.84023e-06
1.29087e-07
1.58253e-07
2.83925e-06
2.97066e-06
-1.19048e-07
2.97199e-06
3.9714e-08
2.97804e-06
1.77254e-07
2.98016e-06
1.7406e-08
2.9846e-06
1.08325e-07
2.98239e-06
-2.88506e-08
2.98834e-06
6.75829e-08
2.98407e-06
-2.59398e-08
2.99158e-06
6.62749e-08
2.9844e-06
-4.15204e-08
2.99448e-06
7.36942e-08
2.98542e-06
-3.12256e-08
2.99531e-06
5.46853e-08
2.98835e-06
1.62744e-08
2.99162e-06
3.29351e-08
2.98866e-06
6.52932e-08
2.98372e-06
6.45169e-08
2.98195e-06
1.01918e-07
2.97739e-06
1.33639e-07
1.59794e-07
2.97585e-06
3.113e-06
-1.17041e-07
3.11373e-06
3.89864e-08
3.12057e-06
1.70407e-07
3.12223e-06
1.57497e-08
3.12757e-06
1.02989e-07
3.12463e-06
-2.5912e-08
3.13139e-06
6.08247e-08
3.12657e-06
-2.11276e-08
3.13446e-06
5.83845e-08
3.12741e-06
-3.44642e-08
3.13711e-06
6.39923e-08
3.12907e-06
-2.31881e-08
3.13775e-06
4.60044e-08
3.13232e-06
2.17048e-08
3.13414e-06
3.11148e-08
3.13202e-06
6.74116e-08
3.12653e-06
7.0016e-08
3.12464e-06
1.03807e-07
3.12106e-06
1.37215e-07
1.61746e-07
3.11911e-06
3.26216e-06
-1.15288e-07
3.26217e-06
3.89718e-08
3.26995e-06
1.62627e-07
3.27106e-06
1.46412e-08
3.27735e-06
9.66943e-08
3.27371e-06
-2.22708e-08
3.28117e-06
5.33692e-08
3.27604e-06
-1.5996e-08
3.28398e-06
5.04398e-08
3.27746e-06
-2.79405e-08
3.28641e-06
5.50431e-08
3.27968e-06
-1.64644e-08
3.28705e-06
3.86364e-08
3.28308e-06
2.56729e-08
3.28381e-06
3.03914e-08
3.28219e-06
6.90322e-08
3.27627e-06
7.59284e-08
3.27381e-06
1.06272e-07
3.27151e-06
1.39514e-07
1.64046e-07
3.26921e-06
3.41846e-06
-1.13812e-07
3.41765e-06
3.97721e-08
3.42649e-06
1.53794e-07
3.427e-06
1.41273e-08
3.43425e-06
8.94429e-08
3.43002e-06
-1.80409e-08
3.43795e-06
4.54383e-08
3.43285e-06
-1.08901e-08
3.44043e-06
4.28607e-08
3.43488e-06
-2.23984e-08
3.44274e-06
4.71901e-08
3.43751e-06
-1.12376e-08
3.44357e-06
3.25791e-08
3.44097e-06
2.82736e-08
3.44108e-06
3.02813e-08
3.44006e-06
7.00546e-08
3.43329e-06
8.26927e-08
3.42915e-06
1.10413e-07
3.42834e-06
1.40322e-07
1.66486e-07
3.4259e-06
3.58223e-06
-1.1263e-07
3.58053e-06
4.14729e-08
3.5905e-06
1.43827e-07
3.59043e-06
1.41955e-08
3.59856e-06
8.13159e-08
3.59395e-06
-1.3437e-08
3.60203e-06
3.73585e-08
3.59737e-06
-6.23091e-09
3.60416e-06
3.60681e-08
3.59995e-06
-1.81796e-08
3.60655e-06
4.05827e-08
3.60277e-06
-7.45292e-09
3.60773e-06
2.76171e-08
3.60629e-06
2.97108e-08
3.6065e-06
3.00708e-08
3.60883e-06
6.77316e-08
3.6078e-06
8.3721e-08
3.60231e-06
1.15902e-07
3.58617e-06
1.56464e-07
1.64333e-07
3.58832e-06
3.75383e-06
-1.11753e-07
3.75117e-06
4.41303e-08
3.7623e-06
1.32701e-07
3.76174e-06
1.47496e-08
3.77056e-06
7.24934e-08
3.76591e-06
-8.77994e-09
3.77374e-06
2.9529e-08
3.76994e-06
-2.43543e-09
3.77564e-06
3.03704e-08
3.77282e-06
-1.53569e-08
3.77839e-06
3.50119e-08
3.77566e-06
-4.72148e-09
3.78011e-06
2.31593e-08
3.77965e-06
3.01714e-08
3.78072e-06
2.89982e-08
3.78706e-06
6.13948e-08
3.79113e-06
7.96504e-08
3.79929e-06
1.07743e-07
3.8123e-06
1.43453e-07
1.87947e-07
3.78869e-06
3.93361e-06
-1.11174e-07
3.92999e-06
4.77544e-08
3.9422e-06
1.20486e-07
3.94137e-06
1.55795e-08
3.95059e-06
6.32772e-08
3.94632e-06
-4.50971e-09
3.95344e-06
2.24088e-08
3.95088e-06
1.25123e-10
3.95534e-06
2.59114e-08
3.95372e-06
-1.3745e-08
3.95868e-06
3.00508e-08
3.95656e-06
-2.59723e-09
3.96109e-06
1.86279e-08
3.96258e-06
2.86829e-08
3.96276e-06
2.88179e-08
3.95637e-06
6.77864e-08
3.94525e-06
9.07682e-08
3.93871e-06
1.14287e-07
3.93045e-06
1.51709e-07
1.81744e-07
3.93666e-06
4.12195e-06
-1.10875e-07
4.11741e-06
5.22953e-08
4.13053e-06
1.07365e-07
4.12977e-06
1.63441e-08
4.13897e-06
5.40743e-08
4.13559e-06
-1.12982e-09
4.14159e-06
1.64051e-08
4.14045e-06
1.27058e-09
4.1438e-06
2.25628e-08
4.14297e-06
-1.29204e-08
4.14782e-06
2.52059e-08
4.1461e-06
-8.78805e-10
4.14866e-06
1.60677e-08
4.14405e-06
3.32912e-08
4.1352e-06
3.76675e-08
4.13302e-06
6.99686e-08
4.12825e-06
9.55369e-08
4.12296e-06
1.19573e-07
4.1207e-06
1.53972e-07
1.78359e-07
4.12409e-06
4.31924e-06
-1.10817e-07
4.31391e-06
5.76268e-08
4.32761e-06
9.36681e-08
4.32738e-06
1.65743e-08
4.33611e-06
4.53425e-08
4.33409e-06
8.92778e-10
4.33874e-06
1.17526e-08
4.33891e-06
1.09869e-09
4.34153e-06
1.99457e-08
4.34098e-06
-1.2366e-08
4.34533e-06
2.08516e-08
4.34067e-06
3.78304e-09
4.33789e-06
1.88501e-08
4.33343e-06
3.77477e-08
4.32784e-06
4.32528e-08
4.32497e-06
7.28385e-08
4.32093e-06
9.9585e-08
4.31733e-06
1.23169e-07
4.31778e-06
1.53523e-07
1.75667e-07
4.32047e-06
4.5259e-06
-1.1094e-07
4.51999e-06
6.35318e-08
4.53377e-06
7.98911e-08
4.53467e-06
1.56698e-08
4.54245e-06
3.75635e-08
4.54216e-06
1.18631e-09
4.54548e-06
8.43623e-09
4.54655e-06
2.29941e-11
4.54894e-06
1.75534e-08
4.54729e-06
-1.07095e-08
4.54883e-06
1.93087e-08
4.54217e-06
1.04377e-08
4.53903e-06
2.19938e-08
4.53501e-06
4.17656e-08
4.52994e-06
4.83273e-08
4.52698e-06
7.58003e-08
4.52353e-06
1.03029e-07
4.52103e-06
1.25673e-07
4.52314e-06
1.51414e-07
1.737e-07
4.5251e-06
4.74234e-06
-1.11162e-07
4.73617e-06
6.97022e-08
4.74938e-06
6.66724e-08
4.75207e-06
1.29796e-08
4.75852e-06
3.11173e-08
4.76008e-06
-3.76238e-10
4.76241e-06
6.10973e-09
4.76369e-06
-1.26004e-09
4.76586e-06
1.5386e-08
4.76115e-06
-6.00366e-09
4.7604e-06
2.00622e-08
4.75423e-06
1.66113e-08
4.75052e-06
2.57033e-08
4.74687e-06
4.54181e-08
4.74203e-06
5.31643e-08
4.73915e-06
7.86781e-08
4.73627e-06
1.05914e-07
4.73471e-06
1.27226e-07
4.7367e-06
1.49423e-07
1.71384e-07
4.73902e-06
4.96901e-06
-1.11378e-07
4.96298e-06
7.57401e-08
4.97488e-06
5.4769e-08
4.97998e-06
7.87851e-09
4.98491e-06
2.61841e-08
4.98817e-06
-3.63292e-09
4.99007e-06
4.21467e-09
4.99047e-06
-1.66915e-09
4.99119e-06
1.46692e-08
4.98413e-06
1.05362e-09
4.98224e-06
2.19546e-08
4.97671e-06
2.21447e-08
4.97273e-06
2.9678e-08
4.96922e-06
4.89347e-08
4.96457e-06
5.78113e-08
4.96185e-06
8.13964e-08
4.95958e-06
1.08183e-07
4.95878e-06
1.28033e-07
4.96012e-06
1.48082e-07
1.68403e-07
4.9631e-06
5.20641e-06
-1.1147e-07
5.20097e-06
8.11805e-08
5.21076e-06
4.49725e-08
5.21871e-06
-6.80988e-11
5.22231e-06
2.25893e-08
5.22681e-06
-8.13996e-09
5.22873e-06
2.29941e-09
5.22697e-06
9.01296e-11
5.22506e-06
1.65773e-08
5.21769e-06
8.42621e-09
5.21495e-06
2.46963e-08
5.21014e-06
2.69521e-08
5.20605e-06
3.37668e-08
5.20254e-06
5.24436e-08
5.19805e-06
6.22991e-08
5.19549e-06
8.3962e-08
5.194e-06
1.09669e-07
5.19354e-06
1.28497e-07
5.19466e-06
1.46958e-07
1.65056e-07
5.19801e-06
5.45503e-06
-1.11314e-07
5.45068e-06
8.55321e-08
5.45772e-06
3.79312e-08
5.46847e-06
-1.08183e-08
5.47139e-06
1.9676e-08
5.4764e-06
-1.31498e-08
5.47849e-06
2.07636e-10
5.47277e-06
5.80953e-09
5.46944e-06
1.99075e-08
5.46264e-06
1.52259e-08
5.45923e-06
2.81028e-08
5.45493e-06
3.12489e-08
5.45086e-06
3.78382e-08
5.44739e-06
5.59213e-08
5.44302e-06
6.66596e-08
5.44057e-06
8.64163e-08
5.4399e-06
1.1034e-07
5.43962e-06
1.28776e-07
5.44083e-06
1.45749e-07
1.61533e-07
5.44435e-06
5.71543e-06
-1.10787e-07
5.71266e-06
8.83055e-08
5.71655e-06
3.40391e-08
5.72946e-06
-2.37333e-08
5.73244e-06
1.67001e-08
5.73614e-06
-1.68488e-08
5.73607e-06
2.74515e-10
5.72894e-06
1.29475e-08
5.72536e-06
2.34822e-08
5.71965e-06
2.09319e-08
5.71568e-06
3.20752e-08
5.71156e-06
3.53686e-08
5.70763e-06
4.17746e-08
5.70427e-06
5.92774e-08
5.70006e-06
7.08669e-08
5.69769e-06
8.87867e-08
5.69765e-06
1.10384e-07
5.69769e-06
1.28737e-07
5.6991e-06
1.44338e-07
1.57927e-07
5.7027e-06
5.98819e-06
-1.09786e-07
5.98748e-06
8.90223e-08
5.98811e-06
3.34041e-08
6.0018e-06
-3.74201e-08
6.00424e-06
1.42554e-08
6.00401e-06
-1.6613e-08
6.004e-06
2.8001e-10
5.99753e-06
1.94175e-08
5.99395e-06
2.70581e-08
5.98913e-06
2.57551e-08
5.98486e-06
3.63468e-08
5.9806e-06
3.96259e-08
5.97684e-06
4.55376e-08
5.97371e-06
6.24101e-08
5.96975e-06
7.48275e-08
5.96747e-06
9.10612e-08
5.96777e-06
1.10087e-07
5.9683e-06
1.28202e-07
5.97e-06
1.42637e-07
1.54274e-07
5.97366e-06
6.27394e-06
-1.08234e-07
6.27563e-06
8.73303e-08
6.27328e-06
3.57501e-08
6.28573e-06
-4.98671e-08
6.28747e-06
1.25168e-08
6.28531e-06
-1.44513e-08
6.2858e-06
-2.1586e-10
6.27968e-06
2.55369e-08
6.27568e-06
3.10645e-08
6.27158e-06
2.98521e-08
6.26731e-06
4.06134e-08
6.26273e-06
4.42111e-08
6.25906e-06
4.92028e-08
6.25625e-06
6.52257e-08
6.25265e-06
7.84229e-08
6.25053e-06
9.31831e-08
6.2509e-06
1.09717e-07
6.25201e-06
1.27094e-07
6.25409e-06
1.40557e-07
1.50554e-07
6.25781e-06
6.57331e-06
-1.06075e-07
6.5776e-06
8.30427e-08
6.57277e-06
4.05826e-08
6.58264e-06
-5.97455e-08
6.58491e-06
1.02496e-08
6.58111e-06
-1.06481e-08
6.5816e-06
-7.03956e-10
6.57581e-06
3.13223e-08
6.57114e-06
3.57353e-08
6.56757e-06
3.34231e-08
6.56358e-06
4.46047e-08
6.55865e-06
4.91379e-08
6.55492e-06
5.29305e-08
6.55246e-06
6.76902e-08
6.54935e-06
8.15282e-08
6.54747e-06
9.50615e-08
6.54777e-06
1.09419e-07
6.54938e-06
1.25485e-07
6.55192e-06
1.38021e-07
1.46698e-07
6.55577e-06
6.887e-06
-1.03282e-07
6.89379e-06
7.62485e-08
6.88725e-06
4.71279e-08
6.8943e-06
-6.67954e-08
6.89698e-06
7.56045e-09
6.89155e-06
-5.2169e-09
6.89166e-06
-8.12103e-10
6.88648e-06
3.6499e-08
6.88104e-06
4.11807e-08
6.87772e-06
3.67387e-08
6.8742e-06
4.81279e-08
6.86908e-06
5.42623e-08
6.86513e-06
5.68778e-08
6.86296e-06
6.9858e-08
6.86045e-06
8.40363e-08
6.85894e-06
9.65726e-08
6.85913e-06
1.09227e-07
6.86109e-06
1.23527e-07
6.8641e-06
1.35012e-07
1.42618e-07
6.86818e-06
7.21571e-06
-9.98517e-08
7.22471e-06
6.72461e-08
7.21743e-06
5.44117e-08
7.2216e-06
-7.09689e-08
7.22444e-06
4.72183e-09
7.21726e-06
1.96226e-09
7.21656e-06
-1.13638e-10
7.21227e-06
4.07902e-08
7.20613e-06
4.73199e-08
7.20273e-06
4.01426e-08
7.19979e-06
5.10674e-08
7.19471e-06
5.93381e-08
7.19043e-06
6.11538e-08
7.18843e-06
7.18603e-08
7.1866e-06
8.58659e-08
7.18556e-06
9.76138e-08
7.18571e-06
1.09082e-07
7.18786e-06
1.21377e-07
7.19128e-06
1.31585e-07
1.38243e-07
7.19566e-06
7.56018e-06
-9.58087e-08
7.57105e-06
5.63837e-08
7.56394e-06
6.1516e-08
7.56552e-06
-7.25522e-08
7.56809e-06
2.16085e-09
7.55893e-06
1.1116e-08
7.55696e-06
1.85331e-09
7.55378e-06
4.39733e-08
7.54718e-06
5.39187e-08
7.54333e-06
4.39994e-08
7.54097e-06
5.34215e-08
7.53624e-06
6.40685e-08
7.53163e-06
6.5766e-08
7.52961e-06
7.38838e-08
7.52851e-06
8.69631e-08
7.52797e-06
9.81559e-08
7.52823e-06
1.08819e-07
7.53046e-06
1.19147e-07
7.5342e-06
1.27847e-07
1.33552e-07
7.53889e-06
7.92119e-06
-9.11913e-08
7.93343e-06
4.41427e-08
7.92753e-06
6.74175e-08
7.92732e-06
-7.23417e-08
7.92868e-06
8.05904e-10
7.91732e-06
2.24743e-08
7.91367e-06
5.49885e-09
7.91168e-06
4.59694e-08
7.90498e-06
6.06135e-08
7.90037e-06
4.86137e-08
7.89842e-06
5.53695e-08
7.89435e-06
6.81404e-08
7.88952e-06
7.0594e-08
7.8873e-06
7.61068e-08
7.88687e-06
8.73895e-08
7.88686e-06
9.81698e-08
7.88742e-06
1.08254e-07
7.8897e-06
1.16869e-07
7.89362e-06
1.23924e-07
1.2858e-07
7.8986e-06
8.29953e-06
-8.60382e-08
8.31259e-06
3.10819e-08
8.31022e-06
6.97841e-08
8.30836e-06
-7.04764e-08
8.30677e-06
2.39423e-09
8.29319e-06
3.60539e-08
8.2876e-06
1.10881e-08
8.28668e-06
4.68922e-08
8.28029e-06
6.6998e-08
8.27475e-06
5.41514e-08
8.2729e-06
5.72235e-08
8.2697e-06
7.13413e-08
8.26492e-06
7.53743e-08
8.26239e-06
7.86396e-08
8.26243e-06
8.73436e-08
8.26299e-06
9.76081e-08
8.26401e-06
1.07237e-07
8.26639e-06
1.14494e-07
8.2704e-06
1.19913e-07
1.23401e-07
8.27558e-06
8.69601e-06
-8.03865e-08
8.71055e-06
1.65405e-08
8.71157e-06
6.87667e-08
8.70805e-06
-6.69545e-08
8.70233e-06
8.11603e-09
8.68738e-06
5.10035e-08
8.67979e-06
1.86725e-08
8.67955e-06
4.71329e-08
8.67384e-06
7.27068e-08
8.6674e-06
6.05922e-08
8.66529e-06
5.93358e-08
8.663e-06
7.36329e-08
8.65862e-06
7.97537e-08
8.65579e-06
8.14697e-08
8.65604e-06
8.70883e-08
8.65716e-06
9.64903e-08
8.65875e-06
1.0565e-07
8.66133e-06
1.11915e-07
8.66538e-06
1.15857e-07
1.18108e-07
8.67068e-06
9.11144e-06
-7.42101e-08
9.13021e-06
-2.23005e-09
9.13277e-06
6.62103e-08
9.12042e-06
-5.46029e-08
9.1152e-06
1.33332e-08
9.10081e-06
6.53921e-08
9.09132e-06
2.81616e-08
9.09112e-06
4.73411e-08
9.08639e-06
7.74288e-08
9.07925e-06
6.77383e-08
9.07654e-06
6.20467e-08
9.07502e-06
7.51471e-08
9.07139e-06
8.33866e-08
9.06843e-06
8.44309e-08
9.06863e-06
8.68865e-08
9.07021e-06
9.4908e-08
9.07244e-06
1.0342e-07
9.07535e-06
1.09004e-07
9.07947e-06
1.11735e-07
1.12773e-07
9.08481e-06
9.54665e-06
-6.73954e-08
9.5615e-06
-1.70891e-08
9.55505e-06
7.26608e-08
9.54619e-06
-4.57375e-08
9.54666e-06
1.28584e-08
9.53455e-06
7.75064e-08
9.52315e-06
3.95651e-08
9.52226e-06
4.82271e-08
9.51871e-06
8.09743e-08
9.51122e-06
7.52288e-08
9.50766e-06
6.56145e-08
9.50666e-06
7.61434e-08
9.50401e-06
8.60332e-08
9.50122e-06
8.72276e-08
9.50118e-06
8.6925e-08
9.50309e-06
9.30003e-08
9.50595e-06
1.00555e-07
9.50932e-06
1.05638e-07
9.51357e-06
1.07484e-07
1.07424e-07
9.51892e-06
1.00026e-05
-5.98461e-08
1.00057e-05
-2.02153e-08
1.00021e-05
7.62717e-08
9.99499e-06
-3.86227e-08
9.99839e-06
9.45944e-09
9.98921e-06
8.66767e-08
9.97621e-06
5.25708e-08
9.97407e-06
5.03629e-08
9.97166e-06
8.33897e-08
9.96428e-06
8.26113e-08
9.95972e-06
7.01729e-08
9.9589e-06
7.69632e-08
9.95731e-06
8.76214e-08
9.95499e-06
8.95465e-08
9.9547e-06
8.72181e-08
9.95676e-06
9.09328e-08
9.96018e-06
9.71443e-08
9.96408e-06
1.01738e-07
9.96855e-06
1.03007e-07
1.02044e-07
9.97393e-06
1.04805e-05
-5.16677e-08
1.04764e-05
-1.61395e-08
1.04791e-05
7.35536e-08
1.04689e-05
-2.83778e-08
1.04716e-05
6.75251e-09
1.04652e-05
9.30111e-08
1.04514e-05
6.6439e-08
1.04475e-05
5.41891e-08
1.0446e-05
8.49031e-08
1.04392e-05
8.94134e-08
1.04337e-05
7.56602e-08
1.04327e-05
7.79546e-08
1.04321e-05
8.82323e-08
1.04305e-05
9.11404e-08
1.04302e-05
8.75976e-08
1.04323e-05
8.88319e-08
1.04361e-05
9.33372e-08
1.04405e-05
9.72834e-08
1.04453e-05
9.81941e-08
9.6587e-08
1.04508e-05
1.0982e-05
-4.36386e-08
1.10035e-05
-3.76895e-08
1.09883e-05
8.87432e-08
1.09664e-05
-6.42612e-09
1.09673e-05
5.86651e-09
1.09637e-05
9.66255e-08
1.09497e-05
8.04571e-08
1.09438e-05
6.0001e-08
1.09428e-05
8.59216e-08
1.09369e-05
9.52878e-08
1.09308e-05
8.18191e-08
1.09293e-05
7.94705e-08
1.09294e-05
8.81034e-08
1.09287e-05
9.18446e-08
1.09284e-05
8.78553e-08
1.09305e-05
8.67275e-08
1.09346e-05
8.92861e-08
1.09395e-05
9.23286e-08
1.09448e-05
9.29554e-08
9.097e-08
1.09504e-05
1.15068e-05
-3.50632e-08
1.15034e-05
-3.42987e-08
1.15058e-05
8.63486e-08
1.14895e-05
9.91239e-09
1.14879e-05
7.44392e-09
1.14858e-05
9.87219e-08
1.14721e-05
9.41443e-08
1.14642e-05
6.78706e-08
1.14632e-05
8.69826e-08
1.14584e-05
1.00008e-07
1.14521e-05
8.81856e-08
1.14498e-05
8.17215e-08
1.14504e-05
8.75635e-08
1.14507e-05
9.15281e-08
1.14507e-05
8.78204e-08
1.14529e-05
8.45374e-08
1.14571e-05
8.51058e-08
1.14624e-05
8.69819e-08
1.14681e-05
8.72772e-08
8.50836e-08
1.1474e-05
1.20575e-05
-2.66953e-08
1.20539e-05
-3.07793e-08
1.20525e-05
8.77525e-08
1.20374e-05
2.50807e-08
1.20337e-05
1.11217e-08
1.20326e-05
9.97865e-08
1.20197e-05
1.07032e-07
1.20099e-05
7.76623e-08
1.20082e-05
8.87086e-08
1.20047e-05
1.03549e-07
1.19985e-05
9.43393e-08
1.19955e-05
8.47572e-08
1.19961e-05
8.69852e-08
1.19973e-05
9.03018e-08
1.19979e-05
8.72501e-08
1.20002e-05
8.21773e-08
1.20045e-05
8.08399e-08
1.20101e-05
8.13492e-08
1.20162e-05
8.11778e-08
7.88412e-08
1.20225e-05
1.26344e-05
-1.8486e-08
1.26279e-05
-2.42549e-08
1.26284e-05
8.71798e-08
1.26123e-05
4.12606e-08
1.26056e-05
1.77466e-08
1.26052e-05
1.0021e-07
1.25935e-05
1.18728e-07
1.25821e-05
8.90962e-08
1.25791e-05
9.16542e-08
1.25766e-05
1.06096e-07
1.2571e-05
9.9873e-08
1.25674e-05
8.84044e-08
1.25677e-05
8.6665e-08
1.25696e-05
8.84698e-08
1.2571e-05
8.57763e-08
1.25736e-05
7.96329e-08
1.2578e-05
7.6412e-08
1.25838e-05
7.55343e-08
1.25903e-05
7.46994e-08
7.22069e-08
1.25969e-05
1.32391e-05
-1.06753e-08
1.32379e-05
-2.30159e-08
1.32351e-05
8.99861e-08
1.32153e-05
6.10669e-08
1.32051e-05
2.79577e-08
1.32048e-05
1.00469e-07
1.31946e-05
1.28941e-07
1.3182e-05
1.01719e-07
1.31774e-05
9.62385e-08
1.31754e-05
1.08046e-07
1.31708e-05
1.04534e-07
1.31668e-05
9.23596e-08
1.31666e-05
8.68522e-08
1.31688e-05
8.63323e-08
1.31712e-05
8.33009e-08
1.31741e-05
7.68118e-08
1.31788e-05
7.16722e-08
1.31847e-05
6.96851e-08
1.31915e-05
6.7863e-08
6.51626e-08
1.31985e-05
1.38728e-05
-3.29356e-09
1.38708e-05
-2.10238e-08
1.38677e-05
9.30739e-08
1.38475e-05
8.12746e-08
1.38339e-05
4.15326e-08
1.38329e-05
1.01524e-07
1.38242e-05
1.37614e-07
1.38109e-05
1.14984e-07
1.38045e-05
1.02699e-07
1.38025e-05
1.10014e-07
1.37988e-05
1.08266e-07
1.37948e-05
9.62871e-08
1.37941e-05
8.76123e-08
1.37963e-05
8.41137e-08
1.37996e-05
8.00432e-08
1.38029e-05
7.34296e-08
1.38081e-05
6.64829e-08
1.38139e-05
6.38944e-08
1.38212e-05
6.06154e-08
5.76981e-08
1.38286e-05
1.45367e-05
3.71513e-09
1.45235e-05
-7.87668e-09
1.45265e-05
9.00478e-08
1.45101e-05
9.76764e-08
1.44937e-05
5.80027e-08
1.44908e-05
1.04368e-07
1.44835e-05
1.44904e-07
1.44701e-05
1.28373e-07
1.44618e-05
1.11001e-07
1.44592e-05
1.12636e-07
1.44563e-05
1.11186e-07
1.44527e-05
9.98922e-08
1.44515e-05
8.8791e-08
1.44536e-05
8.20529e-08
1.44573e-05
7.63501e-08
1.44615e-05
6.91882e-08
1.4467e-05
6.10026e-08
1.44731e-05
5.77733e-08
1.44806e-05
5.31294e-08
4.97479e-08
1.44885e-05
1.52327e-05
9.93509e-09
1.52221e-05
2.68261e-09
1.52201e-05
9.20543e-08
1.52038e-05
1.13939e-07
1.51855e-05
7.6383e-08
1.51802e-05
1.09602e-07
1.51739e-05
1.51232e-07
1.51608e-05
1.41434e-07
1.51509e-05
1.20927e-07
1.51471e-05
1.16459e-07
1.51446e-05
1.13672e-07
1.51415e-05
1.03027e-07
1.51401e-05
9.01696e-08
1.51418e-05
8.03456e-08
1.51457e-05
7.24361e-08
1.51508e-05
6.40928e-08
1.51563e-05
5.54891e-08
1.51636e-05
5.05282e-08
1.51709e-05
4.57848e-08
4.11171e-08
1.51795e-05
1.59617e-05
1.55488e-08
1.59525e-05
1.18655e-08
1.59458e-05
9.88009e-08
1.59307e-05
1.29003e-07
1.59108e-05
9.63377e-08
1.59028e-05
1.17572e-07
1.58968e-05
1.57281e-07
1.58843e-05
1.53889e-07
1.5873e-05
1.32195e-07
1.58676e-05
1.21849e-07
1.58651e-05
1.16244e-07
1.58624e-05
1.05653e-07
1.5861e-05
9.15959e-08
1.58624e-05
7.89881e-08
1.58663e-05
6.84836e-08
1.58719e-05
5.84823e-08
1.5878e-05
4.94386e-08
1.58859e-05
4.26222e-08
1.58941e-05
3.76159e-08
3.25014e-08
1.59027e-05
1.67251e-05
2.10591e-08
1.67014e-05
3.55952e-08
1.67045e-05
9.56664e-08
1.66925e-05
1.41044e-07
1.66711e-05
1.17701e-07
1.66602e-05
1.28452e-07
1.66537e-05
1.63748e-07
1.66419e-05
1.65687e-07
1.66297e-05
1.44477e-07
1.66225e-05
1.28969e-07
1.66193e-05
1.19527e-07
1.6617e-05
1.07873e-07
1.66156e-05
9.3056e-08
1.66167e-05
7.78881e-08
1.66205e-05
6.46941e-08
1.66263e-05
5.26895e-08
1.66332e-05
4.24709e-08
1.66416e-05
3.42792e-08
1.66509e-05
2.83014e-08
2.36849e-08
1.66597e-05
1.75259e-05
2.55108e-08
1.75252e-05
3.6307e-08
1.75073e-05
1.13577e-07
1.74897e-05
1.586e-07
1.74679e-05
1.39516e-07
1.74541e-05
1.42217e-07
1.74466e-05
1.7133e-07
1.74352e-05
1.77043e-07
1.74221e-05
1.57544e-07
1.74133e-05
1.37839e-07
1.74088e-05
1.24045e-07
1.74065e-05
1.10106e-07
1.7405e-05
9.45668e-08
1.74059e-05
7.7023e-08
1.74095e-05
6.10982e-08
1.74154e-05
4.67531e-08
1.74231e-05
3.47558e-08
1.74322e-05
2.52396e-08
1.74421e-05
1.83621e-08
1.3373e-08
1.74524e-05
1.83636e-05
3.02584e-08
1.83392e-05
6.0714e-08
1.83381e-05
1.14669e-07
1.83259e-05
1.70764e-07
1.83033e-05
1.62202e-07
1.82866e-05
1.58911e-07
1.82772e-05
1.80706e-07
1.82659e-05
1.88348e-07
1.82522e-05
1.71216e-07
1.82416e-05
1.48449e-07
1.82355e-05
1.30156e-07
1.82326e-05
1.12978e-07
1.82309e-05
9.63076e-08
1.82314e-05
7.64521e-08
1.82348e-05
5.77128e-08
1.82409e-05
4.0716e-08
1.82491e-05
2.65013e-08
1.8259e-05
1.5336e-08
1.827e-05
7.38889e-09
1.76194e-09
1.82816e-05
1.9242e-05
3.46348e-08
1.92296e-05
7.30872e-08
1.92127e-05
1.31636e-07
1.92012e-05
1.82243e-07
1.91784e-05
1.85034e-07
1.91592e-05
1.78072e-07
1.91474e-05
1.92544e-07
1.91355e-05
2.00168e-07
1.91213e-05
1.85473e-07
1.9109e-05
1.60786e-07
1.91009e-05
1.382e-07
1.90967e-05
1.17226e-07