/*--------------------------------*- C++ -*----------------------------------*\
| =========                 |                                                 |
| \\      /  F ield         | OpenFOAM: The Open Source CFD Toolbox           |
|  \\    /   O peration     | Version:  v2012                                 |
|   \\  /    A nd           | Website:  www.openfoam.com                      |
|    \\/     M anipulation  |                                                 |
\*---------------------------------------------------------------------------*/
FoamFile
{
    version     2.0;
    format      ascii;
    class       volVectorField;
    location    "4.2";
    object      U;
}
// * * * * * * * * * * * * * * * * * * * * * * * * * * * * * * * * * * * * * //

dimensions      [0 1 -1 0 0 0 0];


internalField   nonuniform List<vector> 
17600
(
(0.821403 -0.00162533 0)
(1.17655 0.00110807 0)
(0.843698 0.00281715 0)
(1.16497 0.000921421 0)
(0.851821 0.00117435 0)
(1.13856 -0.000738668 0)
(0.858602 0.00081508 0)
(1.1184 -0.00100689 0)
(0.865781 0.00178934 0)
(1.10348 -0.00248406 0)
(0.869488 0.00363266 0)
(1.09348 -0.00422548 0)
(0.866369 0.00519671 0)
(1.0883 -0.00418657 0)
(0.858902 0.00477294 0)
(1.08469 -0.00281045 0)
(0.848488 0.00410362 0)
(1.08163 -0.00199339 0)
(0.831063 0.00393272 0)
(1.07891 -0.00117636 0)
(0.832508 -0.0017033 0)
(1.16575 0.00112619 0)
(0.856595 0.00271549 0)
(1.15144 0.00106638 0)
(0.867816 0.00119926 0)
(1.12277 -0.000590479 0)
(0.876585 0.000814565 0)
(1.09996 -0.000869235 0)
(0.886529 0.00174665 0)
(1.08129 -0.00229459 0)
(0.894006 0.00353213 0)
(1.06537 -0.00392677 0)
(0.897149 0.00502738 0)
(1.05065 -0.00385569 0)
(0.902127 0.00468584 0)
(1.03205 -0.00265322 0)
(0.913495 0.0043817 0)
(1.0057 -0.00229484 0)
(0.930061 0.0052826 0)
(0.966273 -0.00230341 0)
(0.854048 -0.00178202 0)
(1.1431 0.0011214 0)
(0.881122 0.00264671 0)
(1.12603 0.00116858 0)
(0.896603 0.00127105 0)
(1.09515 -0.000480437 0)
(0.907613 0.00088048 0)
(1.06971 -0.00079781 0)
(0.91996 0.00179666 0)
(1.04859 -0.00220445 0)
(0.930197 0.00356448 0)
(1.03032 -0.00377718 0)
(0.936901 0.00502678 0)
(1.01368 -0.00371258 0)
(0.946041 0.00474707 0)
(0.9957 -0.00256775 0)
(0.957419 0.00453514 0)
(0.978117 -0.00207931 0)
(0.964088 0.0054392 0)
(0.962613 -0.000882072 0)
(0.883186 -0.00182472 0)
(1.11141 0.00106151 0)
(0.911401 0.00264712 0)
(1.09383 0.00117278 0)
(0.929924 0.00140902 0)
(1.06367 -0.000457234 0)
(0.940943 0.00103424 0)
(1.03897 -0.000825018 0)
(0.952009 0.00194406 0)
(1.02038 -0.00222668 0)
(0.960368 0.00370464 0)
(1.00646 -0.00375634 0)
(0.96478 0.00515011 0)
(0.995957 -0.00370543 0)
(0.970215 0.004903 0)
(0.986443 -0.00255797 0)
(0.974596 0.00465762 0)
(0.979324 -0.00188657 0)
(0.973413 0.00545956 0)
(0.972881 0.000327968 0)
(0.91505 -0.00182494 0)
(1.07664 0.000955094 0)
(0.940491 0.00268601 0)
(1.06188 0.00110493 0)
(0.959207 0.0015825 0)
(1.03662 -0.000477331 0)
(0.967428 0.00122267 0)
(1.01666 -0.000874866 0)
(0.974131 0.00209529 0)
(1.00409 -0.00224982 0)
(0.978233 0.00381099 0)
(0.996554 -0.00371393 0)
(0.979071 0.00520301 0)
(0.991847 -0.00365739 0)
(0.981031 0.00495893 0)
(0.987398 -0.0025012 0)
(0.981974 0.00468137 0)
(0.983559 -0.00167413 0)
(0.979209 0.00544455 0)
(0.978244 0.00142737 0)
(0.944419 -0.00178744 0)
(1.0454 0.000837084 0)
(0.963472 0.00273088 0)
(1.03607 0.00100352 0)
(0.979741 0.001739 0)
(1.01849 -0.000495375 0)
(0.984077 0.00138632 0)
(1.00489 -0.000894838 0)
(0.986295 0.00219324 0)
(0.998036 -0.00223147 0)
(0.987101 0.00384152 0)
(0.994793 -0.00362753 0)
(0.986001 0.00515897 0)
(0.992773 -0.00355005 0)
(0.986582 0.00489389 0)
(0.990027 -0.00236635 0)
(0.986574 0.00459924 0)
(0.986891 -0.00137663 0)
(0.98367 0.00538035 0)
(0.982086 0.00247573 0)
(0.967603 -0.00172564 0)
(1.02215 0.000742438 0)
(0.978842 0.00275741 0)
(1.01889 0.000899286 0)
(0.99151 0.00184446 0)
(1.00895 -0.000494697 0)
(0.992912 0.0015009 0)
(1.00074 -0.000882238 0)
(0.992465 0.00223865 0)
(0.997455 -0.0021875 0)
(0.991857 0.00382407 0)
(0.996161 -0.0035258 0)
(0.990245 0.00507109 0)
(0.995054 -0.00341526 0)
(0.990479 0.00476675 0)
(0.992853 -0.00216053 0)
(0.990215 0.0044257 0)
(0.98999 -0.000965605 0)
(0.987319 0.00524267 0)
(0.985677 0.00348637 0)
(0.983368 -0.0016566 0)
(1.00784 0.00068709 0)
(0.987878 0.00275536 0)
(1.00939 0.000807878 0)
(0.997193 0.00189464 0)
(1.00504 -0.000481943 0)
(0.997371 0.00157123 0)
(1.00042 -0.000855179 0)
(0.996109 0.00225178 0)
(0.998888 -0.00213621 0)
(0.995285 0.00378415 0)
(0.998361 -0.00341955 0)
(0.993738 0.0049675 0)
(0.997629 -0.003267 0)
(0.993906 0.00461892 0)
(0.99571 -0.00191139 0)
(0.99353 0.00419621 0)
(0.993027 -0.000467861 0)
(0.990677 0.0050414 0)
(0.989097 0.0044367 0)
(0.992613 -0.00159338 0)
(1.00066 0.000665844 0)
(0.992906 0.00272934 0)
(1.00504 0.000732396 0)
(0.999709 0.00190422 0)
(1.00386 -0.000469587 0)
(0.999919 0.00161054 0)
(1.00139 -0.000828555 0)
(0.998862 0.00224785 0)
(1.0007 -0.00208448 0)
(0.998265 0.00373058 0)
(1.00053 -0.00330627 0)
(0.99692 0.00484508 0)
(1.00008 -0.00309533 0)
(0.997066 0.0044435 0)
(0.998398 -0.00162533 0)
(0.996596 0.00393919 0)
(0.995861 7.35994e-05 0)
(0.993794 0.00480205 0)
(0.992257 0.00529847 0)
(0.997284 -0.00154112 0)
(0.99782 0.000662485 0)
(0.995862 0.00269046 0)
(1.00342 0.000670217 0)
(1.00093 0.00189159 0)
(1.00362 -0.000464831 0)
(1.00165 0.00162908 0)
(1.00248 -0.000808695 0)
(1.00111 0.00223367 0)
(1.00227 -0.00203357 0)
(1.00082 0.00366522 0)
(1.00234 -0.00318461 0)
(0.999668 0.00469854 0)
(1.00214 -0.00289384 0)
(0.999784 0.00422737 0)
(1.0007 -0.00129653 0)
(0.999224 0.0036534 0)
(0.998291 0.000650726 0)
(0.996478 0.00456863 0)
(0.994991 0.006044 0)
(0.999316 -0.00149868 0)
(0.997024 0.000661548 0)
(0.997797 0.00264757 0)
(1.00299 0.000617749 0)
(1.00167 0.00187018 0)
(1.00358 -0.000468472 0)
(1.00286 0.0016328 0)
(1.0033 -0.000796162 0)
(1.00281 0.0022112 0)
(1.00342 -0.00198258 0)
(1.00277 0.00358735 0)
(1.00366 -0.00305306 0)
(1.00179 0.00452537 0)
(1.0037 -0.00266151 0)
(1.00188 0.00396755 0)
(1.00246 -0.000920714 0)
(1.00125 0.00333361 0)
(1.00017 0.00125048 0)
(0.998576 0.00438827 0)
(0.997161 0.00665413 0)
(1.00008 -0.00146259 0)
(0.996953 0.000654446 0)
(0.999125 0.00260456 0)
(1.00298 0.000571937 0)
(1.00217 0.00184716 0)
(1.00353 -0.00047793 0)
(1.00364 0.0016254 0)
(1.00381 -0.000788906 0)
(1.00395 0.00218076 0)
(1.00415 -0.00192947 0)
(1.00409 0.00349466 0)
(1.00453 -0.00290725 0)
(1.00323 0.0043211 0)
(1.00474 -0.00239521 0)
(1.00331 0.00366486 0)
(1.00366 -0.000508722 0)
(1.00264 0.00300162 0)
(1.00148 0.0018341 0)
(1.00008 0.00428741 0)
(0.998752 0.00711616 0)
(1.00034 -0.00142985 0)
(0.997049 0.000639099 0)
(1.00001 0.00256202 0)
(1.00307 0.000530267 0)
(1.0025 0.00182515 0)
(1.00348 -0.000490007 0)
(1.00408 0.00160953 0)
(1.00407 -0.000784017 0)
(1.0046 0.00214215 0)
(1.00458 -0.00187142 0)
(1.00486 0.00338489 0)
(1.00505 -0.00274377 0)
(1.0041 0.00408465 0)
(1.00538 -0.00209637 0)
(1.00421 0.00333125 0)
(1.0044 -9.54455e-05 0)
(1.00353 0.00268301 0)
(1.00232 0.00237269 0)
(1.00109 0.00428305 0)
(0.999864 0.00743435 0)
(1.00042 -0.00139874 0)
(0.997147 0.000616892 0)
(1.00056 0.00251932 0)
(1.00317 0.000490729 0)
(1.0027 0.00180431 0)
(1.00342 -0.000502188 0)
(1.0043 0.00158684 0)
(1.00419 -0.000778517 0)
(1.00493 0.00209438 0)
(1.00481 -0.00180502 0)
(1.00526 0.00325609 0)
(1.00535 -0.00256119 0)
(1.00458 0.00381981 0)
(1.00572 -0.00177459 0)
(1.00473 0.00298317 0)
(1.00481 0.000324143 0)
(1.00408 0.00240312 0)
(1.00284 0.00283566 0)
(1.00176 0.00437691 0)
(1.00064 0.00763401 0)
(1.00046 -0.00136845 0)
(0.99722 0.000590291 0)
(1.00089 0.00247562 0)
(1.00324 0.000451943 0)
(1.00281 0.00178356 0)
(1.00338 -0.000512793 0)
(1.0044 0.00155797 0)
(1.00424 -0.00076962 0)
(1.00507 0.00203579 0)
(1.00494 -0.0017266 0)
(1.00545 0.00310591 0)
(1.0055 -0.00235736 0)
(1.00484 0.00352832 0)
(1.00589 -0.0014349 0)
(1.00504 0.00262737 0)
(1.00502 0.000750404 0)
(1.00443 0.00219139 0)
(1.00317 0.00321132 0)
(1.00223 0.00455619 0)
(1.00123 0.00774854 0)
(1.00048 -0.00133876 0)
(0.997273 0.000561373 0)
(1.00109 0.00243041 0)
(1.00327 0.000413225 0)
(1.00287 0.00176118 0)
(1.00334 -0.000520638 0)
(1.00444 0.001522 0)
(1.00426 -0.000753903 0)
(1.00512 0.00196384 0)
(1.005 -0.0016335 0)
(1.00553 0.00293404 0)
(1.00558 -0.00213314 0)
(1.00498 0.00321396 0)
(1.00596 -0.00108217 0)
(1.00524 0.00227461 0)
(1.00512 0.00114304 0)
(1.00466 0.0020621 0)
(1.00341 0.00350696 0)
(1.00259 0.004798 0)
(1.0017 0.00781218 0)
(1.00051 -0.00130981 0)
(0.997315 0.000531789 0)
(1.00121 0.00238306 0)
(1.00328 0.000374591 0)
(1.0029 0.00173543 0)
(1.00331 -0.000524149 0)
(1.00445 0.00147714 0)
(1.00426 -0.000728694 0)
(1.00514 0.0018773 0)
(1.00504 -0.00152486 0)
(1.00556 0.00274077 0)
(1.00562 -0.00189089 0)
(1.00506 0.00288418 0)
(1.00598 -0.000730539 0)
(1.00539 0.00194774 0)
(1.00517 0.0014823 0)
(1.00484 0.00201288 0)
(1.00362 0.00373212 0)
(1.00289 0.00507494 0)
(1.00212 0.00785791 0)
(1.00055 -0.00128181 0)
(0.997351 0.00050311 0)
(1.00129 0.00233249 0)
(1.00327 0.000336494 0)
(1.00292 0.00170493 0)
(1.00328 -0.000521795 0)
(1.00446 0.00142229 0)
(1.00425 -0.000693244 0)
(1.00513 0.00177614 0)
(1.00505 -0.00140121 0)
(1.00557 0.00252898 0)
(1.00563 -0.00163731 0)
(1.00513 0.00255045 0)
(1.00596 -0.000395495 0)
(1.00552 0.00166489 0)
(1.0052 0.00175988 0)
(1.00499 0.00203949 0)
(1.00381 0.0039006 0)
(1.00316 0.00536081 0)
(1.00251 0.00790578 0)
(1.00059 -0.00125492 0)
(0.997385 0.000476481 0)
(1.00135 0.00227765 0)
(1.00325 0.00029938 0)
(1.00293 0.00166805 0)
(1.00324 -0.000511979 0)
(1.00447 0.00135585 0)
(1.00424 -0.000645412 0)
(1.00512 0.00165834 0)
(1.00506 -0.00126306 0)
(1.00557 0.0023024 0)
(1.00563 -0.00138066 0)
(1.00518 0.00222562 0)
(1.00593 -9.15491e-05 0)
(1.00563 0.00143613 0)
(1.00523 0.00197891 0)
(1.00512 0.0021326 0)
(1.00401 0.00402852 0)
(1.00343 0.0056343 0)
(1.00287 0.0079611 0)
(1.00062 -0.00122953 0)
(0.997419 0.000453423 0)
(1.00139 0.00221722 0)
(1.00322 0.000264916 0)
(1.00293 0.00162161 0)
(1.00321 -0.000492669 0)
(1.00447 0.00127595 0)
(1.00422 -0.000583187 0)
(1.00511 0.00152399 0)
(1.00506 -0.00111278 0)
(1.00557 0.00206429 0)
(1.00562 -0.00112725 0)
(1.00524 0.00191814 0)
(1.0059 0.000173729 0)
(1.00574 0.00126399 0)
(1.00527 0.00214531 0)
(1.00525 0.00227729 0)
(1.00422 0.00413524 0)
(1.0037 0.00588501 0)
(1.00322 0.00802859 0)
(1.00066 -0.00120606 0)
(0.997458 0.000435167 0)
(1.00142 0.0021497 0)
(1.00319 0.000235851 0)
(1.00293 0.00156409 0)
(1.00317 -0.000462854 0)
(1.00447 0.00118093 0)
(1.0042 -0.000507077 0)
(1.0051 0.00137603 0)
(1.00506 -0.000956152 0)
(1.00557 0.00182387 0)
(1.0056 -0.000888628 0)
(1.00529 0.00163668 0)
(1.00586 0.000397594 0)
(1.00584 0.00114155 0)
(1.00532 0.00226481 0)
(1.00538 0.00245769 0)
(1.00444 0.00424312 0)
(1.00397 0.00611545 0)
(1.00356 0.0081169 0)
(1.00069 -0.00118443 0)
(0.997503 0.000422243 0)
(1.00145 0.00207407 0)
(1.00316 0.000211307 0)
(1.00293 0.00149491 0)
(1.00314 -0.000421448 0)
(1.00447 0.00107065 0)
(1.00418 -0.000419925 0)
(1.00508 0.00121954 0)
(1.00506 -0.000802692 0)
(1.00557 0.001594 0)
(1.00559 -0.000677452 0)
(1.00535 0.00138827 0)
(1.00584 0.000578185 0)
(1.00594 0.0010576 0)
(1.00539 0.00234583 0)
(1.0055 0.00265632 0)
(1.00467 0.00436796 0)
(1.00425 0.00633067 0)
(1.00388 0.00823223 0)
(1.00072 -0.00116493 0)
(0.997558 0.00041644 0)
(1.00147 0.00198784 0)
(1.00314 0.000193407 0)
(1.00292 0.00141119 0)
(1.00311 -0.000368283 0)
(1.00447 0.000948464 0)
(1.00416 -0.000327146 0)
(1.00506 0.00106119 0)
(1.00506 -0.00065931 0)
(1.00556 0.00137992 0)
(1.00557 -0.00049642 0)
(1.0054 0.00116787 0)
(1.00582 0.000718769 0)
(1.00603 0.00100154 0)
(1.00548 0.00239871 0)
(1.00564 0.00285093 0)
(1.00492 0.00451134 0)
(1.00454 0.00652948 0)
(1.0042 0.00837814 0)
(1.00073 -0.0011494 0)
(0.997624 0.000421282 0)
(1.00147 0.00188672 0)
(1.00313 0.000186705 0)
(1.0029 0.00131016 0)
(1.00309 -0.000301787 0)
(1.00446 0.000812731 0)
(1.00415 -0.000229698 0)
(1.00504 0.000903524 0)
(1.00506 -0.000526272 0)
(1.00556 0.00117932 0)
(1.00556 -0.00034029 0)
(1.00545 0.000974205 0)
(1.00581 0.00082369 0)
(1.00613 0.000970638 0)
(1.00559 0.00242709 0)
(1.00578 0.00302096 0)
(1.00518 0.00465501 0)
(1.00484 0.00670967 0)
(1.00452 0.0085645 0)
(1.00072 -0.00113544 0)
(0.997704 0.0004337 0)
(1.00147 0.00177378 0)
(1.00313 0.000182677 0)
(1.00287 0.00120033 0)
(1.00307 -0.000233658 0)
(1.00443 0.000677677 0)
(1.00415 -0.000143709 0)
(1.00501 0.000765954 0)
(1.00507 -0.00042701 0)
(1.00555 0.00102197 0)
(1.00555 -0.000236619 0)
(1.00549 0.000834887 0)
(1.00581 0.000866001 0)
(1.00621 0.000979411 0)
(1.00573 0.00239698 0)
(1.00594 0.00315484 0)
(1.00546 0.00470049 0)
(1.00515 0.0068436 0)
(1.00484 0.00876887 0)
(1.00071 -0.00112443 0)
(0.997797 0.000457042 0)
(1.00145 0.00164526 0)
(1.00314 0.000188145 0)
(1.00283 0.00107797 0)
(1.00306 -0.000159282 0)
(1.0044 0.000542446 0)
(1.00415 -6.97424e-05 0)
(1.00497 0.000643876 0)
(1.00508 -0.000356635 0)
(1.00553 0.000891708 0)
(1.00555 -0.000160719 0)
(1.00552 0.000708559 0)
(1.00583 0.00088707 0)
(1.00629 0.000980316 0)
(1.00588 0.00234036 0)
(1.00609 0.00321282 0)
(1.00575 0.00466708 0)
(1.0055 0.00681362 0)
(1.00518 0.00879314 0)
(1.00068 -0.00111857 0)
(0.997901 0.000494786 0)
(1.00141 0.00150148 0)
(1.00315 0.00020103 0)
(1.00278 0.000946713 0)
(1.00306 -8.72094e-05 0)
(1.00436 0.000417893 0)
(1.00416 -1.43336e-05 0)
(1.00491 0.000550721 0)
(1.0051 -0.000314309 0)
(1.0055 0.000769024 0)
(1.00555 -8.7908e-05 0)
(1.00555 0.000579751 0)
(1.00585 0.000914809 0)
(1.00637 0.000977464 0)
(1.00604 0.00229591 0)
(1.00626 0.00329443 0)
(1.00605 0.0047122 0)
(1.00585 0.00680171 0)
(1.00556 0.00884744 0)
(1.00064 -0.00111324 0)
(0.998011 0.000541921 0)
(1.00137 0.00134884 0)
(1.00317 0.000211182 0)
(1.00273 0.000814794 0)
(1.00306 -3.09573e-05 0)
(1.00432 0.000314421 0)
(1.00418 1.57208e-05 0)
(1.00486 0.000482639 0)
(1.00512 -0.000293028 0)
(1.00547 0.000660949 0)
(1.00555 -4.20871e-05 0)
(1.00558 0.000489313 0)
(1.00589 0.000928105 0)
(1.00644 0.00107533 0)
(1.00621 0.00233023 0)
(1.00643 0.00349046 0)
(1.00635 0.00485852 0)
(1.00622 0.0068896 0)
(1.00595 0.00894548 0)
(1.00059 -0.00111255 0)
(0.998122 0.000601742 0)
(1.00132 0.0011893 0)
(1.00319 0.000219823 0)
(1.00267 0.000686345 0)
(1.00306 1.14003e-05 0)
(1.00426 0.000228017 0)
(1.00419 2.59851e-05 0)
(1.00479 0.000424185 0)
(1.00513 -0.000269792 0)
(1.00544 0.000550216 0)
(1.00555 3.60807e-05 0)
(1.0056 0.000458119 0)
(1.00594 0.00100528 0)
(1.00652 0.00127312 0)
(1.00641 0.00249041 0)
(1.00663 0.00371786 0)
(1.00666 0.00504756 0)
(1.0066 0.00697945 0)
(1.00636 0.00901813 0)
(1.00055 -0.00111475 0)
(0.998229 0.000670595 0)
(1.00127 0.00102552 0)
(1.00321 0.000217465 0)
(1.00261 0.000572966 0)
(1.00305 2.25685e-05 0)
(1.00421 0.000171299 0)
(1.0042 8.0624e-06 0)
(1.00473 0.00038119 0)
(1.00514 -0.000240103 0)
(1.00542 0.00045582 0)
(1.00555 0.000166969 0)
(1.00563 0.000525785 0)
(1.006 0.00114869 0)
(1.00661 0.00149004 0)
(1.00661 0.00266818 0)
(1.00683 0.00391363 0)
(1.00697 0.00519566 0)
(1.00698 0.00699552 0)
(1.00677 0.00897636 0)
(1.00051 -0.00111642 0)
(0.998326 0.000741603 0)
(1.00122 0.000860656 0)
(1.00322 0.000197006 0)
(1.00256 0.000473744 0)
(1.00304 8.63127e-06 0)
(1.00415 0.000126402 0)
(1.0042 -1.47299e-05 0)
(1.00467 0.000332923 0)
(1.00514 -0.000178887 0)
(1.00541 0.000424557 0)
(1.00556 0.000323191 0)
(1.00567 0.000659056 0)
(1.00607 0.00128914 0)
(1.0067 0.00166499 0)
(1.00681 0.00278686 0)
(1.00703 0.0040505 0)
(1.00727 0.00530013 0)
(1.00736 0.00696731 0)
(1.00719 0.00886109 0)
(1.00048 -0.00112007 0)
(0.99841 0.000813097 0)
(1.00117 0.000708052 0)
(1.00322 0.000144466 0)
(1.0025 0.000400968 0)
(1.00303 -3.32796e-05 0)
(1.0041 8.97398e-05 0)
(1.0042 -2.73531e-05 0)
(1.00462 0.000291924 0)
(1.00514 -6.19557e-05 0)
(1.0054 0.000463052 0)
(1.00557 0.000483674 0)
(1.0057 0.000793611 0)
(1.00614 0.00141245 0)
(1.0068 0.00180551 0)
(1.00701 0.00286965 0)
(1.00725 0.00415521 0)
(1.00756 0.00540417 0)
(1.00774 0.0069452 0)
(1.0076 0.00872238 0)
(1.00045 -0.00112262 0)
(0.998482 0.000880629 0)
(1.00112 0.000575067 0)
(1.00322 5.57679e-05 0)
(1.00245 0.000349108 0)
(1.003 -9.99677e-05 0)
(1.00405 6.03081e-05 0)
(1.00419 -2.24962e-05 0)
(1.00458 0.000288307 0)
(1.00514 9.51384e-05 0)
(1.0054 0.000526751 0)
(1.00559 0.000617325 0)
(1.00574 0.000909169 0)
(1.00621 0.00152744 0)
(1.0069 0.00193907 0)
(1.00722 0.00294211 0)
(1.00749 0.00423439 0)
(1.00786 0.00549868 0)
(1.0081 0.00692563 0)
(1.00801 0.00856373 0)
(1.00043 -0.0011233 0)
(0.998541 0.000939577 0)
(1.00107 0.000474052 0)
(1.0032 -7.45536e-05 0)
(1.00241 0.000306178 0)
(1.00296 -0.000163546 0)
(1.00401 2.19212e-05 0)
(1.00418 3.42234e-05 0)
(1.00455 0.000337977 0)
(1.00513 0.00025726 0)
(1.0054 0.00061549 0)
(1.0056 0.000729461 0)
(1.00578 0.00101906 0)
(1.00629 0.00163986 0)
(1.00701 0.00207986 0)
(1.00743 0.00301062 0)
(1.00774 0.00428857 0)
(1.00815 0.00556423 0)
(1.00845 0.00689855 0)
(1.0084 0.00839333 0)
(1.00042 -0.00112208 0)
(0.998589 0.0009809 0)
(1.00101 0.000416565 0)
(1.00319 -0.000231421 0)
(1.00236 0.00026395 0)
(1.00292 -0.000223424 0)
(1.00398 -2.11393e-06 0)
(1.00417 0.000155179 0)
(1.00452 0.000415588 0)
(1.00512 0.000410738 0)
(1.00539 0.00072593 0)
(1.00561 0.000835227 0)
(1.00583 0.00112552 0)
(1.00636 0.00175306 0)
(1.00711 0.00222737 0)
(1.00764 0.0030792 0)
(1.00801 0.00431645 0)
(1.00845 0.0055916 0)
(1.00879 0.00685783 0)
(1.00878 0.00822088 0)
(1.00042 -0.00111351 0)
(0.99863 0.000995691 0)
(1.00094 0.000400021 0)
(1.00316 -0.000407559 0)
(1.00232 0.000226957 0)
(1.00287 -0.000271743 0)
(1.00396 1.57906e-06 0)
(1.00416 0.000296336 0)
(1.0045 0.000495596 0)
(1.00512 0.000528346 0)
(1.00539 0.000831026 0)
(1.00561 0.000935219 0)
(1.00588 0.00121412 0)
(1.00644 0.0018583 0)
(1.00722 0.00237326 0)
(1.00784 0.00315314 0)
(1.00828 0.00431999 0)
(1.00875 0.00557895 0)
(1.00913 0.00679723 0)
(1.00915 0.008049 0)
(1.00041 -0.00110211 0)
(0.998668 0.000990587 0)
(1.00086 0.000415515 0)
(1.00313 -0.000578786 0)
(1.00229 0.000192845 0)
(1.00282 -0.000265881 0)
(1.00395 -2.61687e-06 0)
(1.00415 0.000422022 0)
(1.00447 0.000566063 0)
(1.00511 0.000611475 0)
(1.00539 0.000930475 0)
(1.00562 0.00104529 0)
(1.00594 0.00129504 0)
(1.00654 0.00195002 0)
(1.00734 0.0025142 0)
(1.00804 0.00323664 0)
(1.00855 0.0043074 0)
(1.00906 0.00552733 0)
(1.00946 0.00670938 0)
(1.0095 0.00787413 0)
(1.0004 -0.00108485 0)
(0.998706 0.000955008 0)
(1.00077 0.000462587 0)
(1.00309 -0.000720477 0)
(1.00226 0.000155217 0)
(1.00277 -0.000215099 0)
(1.00395 -1.25419e-05 0)
(1.00414 0.000534046 0)
(1.00444 0.000648335 0)
(1.0051 0.000682577 0)
(1.00539 0.00103248 0)
(1.00562 0.00117843 0)
(1.006 0.00138493 0)
(1.00664 0.00201966 0)
(1.00746 0.00263903 0)
(1.00822 0.00332774 0)
(1.00882 0.00429323 0)
(1.00937 0.00544689 0)
(1.00979 0.00659201 0)
(1.00984 0.00768997 0)
(1.00039 -0.00105764 0)
(0.998746 0.000883799 0)
(1.00068 0.000531278 0)
(1.00304 -0.000829755 0)
(1.00225 0.000119488 0)
(1.00272 -0.000140193 0)
(1.00395 -2.0833e-05 0)
(1.00414 0.000634095 0)
(1.00441 0.000752826 0)
(1.00509 0.000746412 0)
(1.0054 0.00112277 0)
(1.00562 0.00132226 0)
(1.00605 0.00148673 0)
(1.00675 0.00206753 0)
(1.00759 0.00273649 0)
(1.0084 0.00342393 0)
(1.00907 0.00429604 0)
(1.00968 0.00535863 0)
(1.01013 0.00645136 0)
(1.01017 0.00749095 0)
(1.00039 -0.00102518 0)
(0.998791 0.00078659 0)
(1.00058 0.00061311 0)
(1.00299 -0.0008963 0)
(1.00224 8.527e-05 0)
(1.00266 -3.63289e-05 0)
(1.00395 -1.88836e-05 0)
(1.00415 0.000717765 0)
(1.00438 0.000873549 0)
(1.00509 0.000805753 0)
(1.00542 0.00119041 0)
(1.00563 0.00146728 0)
(1.0061 0.001603 0)
(1.00686 0.00210911 0)
(1.00773 0.00280078 0)
(1.00858 0.00351004 0)
(1.00932 0.0043137 0)
(1.00998 0.00527337 0)
(1.01046 0.00629243 0)
(1.01049 0.00727259 0)
(1.00037 -0.000985728 0)
(0.998843 0.000665826 0)
(1.00048 0.000702028 0)
(1.00293 -0.000921576 0)
(1.00224 5.01211e-05 0)
(1.00261 9.29097e-05 0)
(1.00395 4.73991e-06 0)
(1.00417 0.000785899 0)
(1.00435 0.00101288 0)
(1.00508 0.000880118 0)
(1.00545 0.00124264 0)
(1.00565 0.0016063 0)
(1.00614 0.00173472 0)
(1.00697 0.00215527 0)
(1.00789 0.00283368 0)
(1.00877 0.00356766 0)
(1.00955 0.00432996 0)
(1.01027 0.00519117 0)
(1.01078 0.00611933 0)
(1.01082 0.00703332 0)
(1.00036 -0.000941444 0)
(0.998901 0.000535437 0)
(1.00038 0.000777382 0)
(1.00287 -0.000916504 0)
(1.00226 2.2698e-05 0)
(1.00256 0.000246113 0)
(1.00395 4.98487e-05 0)
(1.0042 0.000826213 0)
(1.00432 0.00115473 0)
(1.00506 0.000970281 0)
(1.00549 0.00127933 0)
(1.00567 0.00172477 0)
(1.00618 0.00187958 0)
(1.00708 0.00221245 0)
(1.00806 0.00284318 0)
(1.00897 0.00358836 0)
(1.00978 0.0043292 0)
(1.01055 0.00510644 0)
(1.01109 0.00593444 0)
(1.01114 0.00677184 0)
(1.00035 -0.000895317 0)
(0.998967 0.00039677 0)
(1.00029 0.000829367 0)
(1.00279 -0.00089986 0)
(1.00229 2.28914e-05 0)
(1.00252 0.000436353 0)
(1.00395 0.000126692 0)
(1.00424 0.000846497 0)
(1.00429 0.00128968 0)
(1.00503 0.00108064 0)
(1.00554 0.00130468 0)
(1.00572 0.00181398 0)
(1.00621 0.00203101 0)
(1.00718 0.00228975 0)
(1.00823 0.00284414 0)
(1.00918 0.00357849 0)
(1.01001 0.00430832 0)
(1.01081 0.00502064 0)
(1.01139 0.00574963 0)
(1.01145 0.00650048 0)
(1.00033 -0.000835208 0)
(0.999039 0.00023376 0)
(1.0002 0.000846538 0)
(1.00272 -0.000861314 0)
(1.00233 6.54559e-05 0)
(1.00248 0.000665456 0)
(1.00393 0.00023212 0)
(1.00429 0.000846161 0)
(1.00428 0.00140612 0)
(1.005 0.00120985 0)
(1.00559 0.00132726 0)
(1.00579 0.00186601 0)
(1.00626 0.0021686 0)
(1.00726 0.00237985 0)
(1.0084 0.00283967 0)
(1.00939 0.00353631 0)
(1.01025 0.00425618 0)
(1.01106 0.00492345 0)
(1.01167 0.00556494 0)
(1.01174 0.00622443 0)
(1.00031 -0.000780798 0)
(0.999116 8.20011e-05 0)
(1.00013 0.000809754 0)
(1.00265 -0.000809592 0)
(1.00239 0.000141629 0)
(1.00245 0.00092885 0)
(1.0039 0.000390956 0)
(1.00435 0.000853737 0)
(1.00428 0.00151403 0)
(1.00496 0.00136642 0)
(1.00564 0.00137177 0)
(1.00587 0.00189205 0)
(1.00631 0.00228376 0)
(1.00734 0.00247902 0)
(1.00856 0.00284002 0)
(1.00962 0.00347072 0)
(1.01049 0.00417189 0)
(1.0113 0.0048105 0)
(1.01192 0.00538253 0)
(1.01202 0.00595332 0)
(1.00029 -0.000705342 0)
(0.999194 -0.000106107 0)
(1.00007 0.000800629 0)
(1.0026 -0.000717468 0)
(1.00249 0.000177296 0)
(1.00243 0.00115479 0)
(1.00385 0.00058794 0)
(1.0044 0.000877397 0)
(1.00431 0.00161224 0)
(1.00492 0.00155161 0)
(1.00567 0.0014598 0)
(1.00597 0.00191662 0)
(1.00639 0.00238157 0)
(1.00741 0.00259247 0)
(1.0087 0.0028662 0)
(1.00984 0.00340659 0)
(1.01074 0.00406968 0)
(1.01154 0.00468577 0)
(1.01217 0.00520521 0)
(1.01228 0.00569427 0)
(1.00026 -0.000605003 0)
(0.999277 -0.000258088 0)
(1.00003 0.000853271 0)
(1.00255 -0.000560383 0)
(1.00259 0.000158626 0)
(1.00243 0.00130994 0)
(1.00379 0.000790448 0)
(1.00446 0.00088627 0)
(1.00435 0.00165458 0)
(1.00489 0.00170948 0)
(1.00569 0.00154612 0)
(1.00607 0.0019083 0)
(1.00648 0.00241467 0)
(1.00748 0.00266938 0)
(1.00883 0.0028829 0)
(1.01005 0.00332328 0)
(1.01099 0.00392783 0)
(1.01179 0.00452107 0)
(1.0124 0.00500568 0)
(1.01251 0.00542902 0)
(1.00024 -0.000597016 0)
(0.999363 -0.000140182 0)
(1.00001 0.000932905 0)
(1.00248 -0.000435539 0)
(1.0027 7.2984e-05 0)
(1.00244 0.00137574 0)
(1.00371 0.000985888 0)
(1.0045 0.000908881 0)
(1.00441 0.00166844 0)
(1.00485 0.0018648 0)
(1.00569 0.00166913 0)
(1.00617 0.00191619 0)
(1.00659 0.00242156 0)
(1.00755 0.00272761 0)
(1.00893 0.00290561 0)
(1.01023 0.00324316 0)
(1.01123 0.00376386 0)
(1.01203 0.00431788 0)
(1.01262 0.00477339 0)
(1.01273 0.00514443 0)
(1.00022 -0.000483091 0)
(0.999461 -0.000275961 0)
(0.999957 0.000964538 0)
(1.00239 -0.000225503 0)
(1.00279 6.90896e-05 0)
(1.00248 0.00147257 0)
(1.00363 0.00124223 0)
(1.00452 0.00100752 0)
(1.00448 0.00169025 0)
(1.00483 0.00201565 0)
(1.00567 0.00182676 0)
(1.00625 0.00194876 0)
(1.0067 0.00241242 0)
(1.00763 0.00276372 0)
(1.00901 0.00293389 0)
(1.01038 0.0031843 0)
(1.01145 0.0036107 0)
(1.01226 0.00410897 0)
(1.01283 0.00453563 0)
(1.01291 0.00486699 0)
(1.00019 -0.000352794 0)
(0.99955 -0.000452816 0)
(0.999979 0.000998516 0)
(1.00231 2.87445e-05 0)
(1.0029 0.000106269 0)
(1.00255 0.0015442 0)
(1.00355 0.00149811 0)
(1.00452 0.00114518 0)
(1.00456 0.00170729 0)
(1.00482 0.00213604 0)
(1.00563 0.0019947 0)
(1.00631 0.00200682 0)
(1.00682 0.00239477 0)
(1.00772 0.00276813 0)
(1.00909 0.00294692 0)
(1.01051 0.00312994 0)
(1.01164 0.00346049 0)
(1.01248 0.00388707 0)
(1.01304 0.00427659 0)
(1.01309 0.00457425 0)
(1.00017 -0.000317813 0)
(0.999651 -0.000345958 0)
(0.999998 0.00105092 0)
(1.00222 0.000227527 0)
(1.00299 0.000113221 0)
(1.00264 0.00153546 0)
(1.00348 0.0017076 0)
(1.0045 0.00130623 0)
(1.00464 0.00172408 0)
(1.00484 0.00222331 0)
(1.00559 0.00215587 0)
(1.00634 0.0020882 0)
(1.00692 0.00237487 0)
(1.00781 0.00273305 0)
(1.00915 0.00291904 0)
(1.0106 0.00305197 0)
(1.0118 0.0032924 0)
(1.01268 0.00363693 0)
(1.01322 0.00397787 0)
(1.01325 0.0042416 0)
(1.00014 -0.000233446 0)
(0.999744 -0.000300437 0)
(1.00003 0.00107979 0)
(1.00212 0.000444373 0)
(1.00306 0.000179307 0)
(1.00275 0.00152813 0)
(1.00341 0.00190387 0)
(1.00444 0.00149016 0)
(1.0047 0.00173684 0)
(1.00486 0.0022509 0)
(1.00554 0.00227212 0)
(1.00633 0.00216381 0)
(1.007 0.0023423 0)
(1.00789 0.00265822 0)
(1.0092 0.00284594 0)
(1.01067 0.00295114 0)
(1.01192 0.00312061 0)
(1.01284 0.00338717 0)
(1.01339 0.00367463 0)
(1.01339 0.00390366 0)
(1.00012 -0.000152816 0)
(0.999833 -0.000252876 0)
(1.00006 0.00108177 0)
(1.002 0.00066997 0)
(1.0031 0.000288079 0)
(1.00286 0.00151337 0)
(1.00336 0.00208175 0)
(1.00436 0.00171616 0)
(1.00474 0.0018075 0)
(1.00489 0.00228904 0)
(1.00549 0.0024052 0)
(1.0063 0.00228712 0)
(1.00705 0.00235424 0)
(1.00795 0.0025932 0)
(1.00924 0.00275927 0)
(1.0107 0.00283799 0)
(1.012 0.00294471 0)
(1.01296 0.00313353 0)
(1.01352 0.0033585 0)
(1.0135 0.0035448 0)
(1.0001 -5.7224e-05 0)
(0.999915 -0.000254674 0)
(1.00012 0.00104941 0)
(1.0019 0.000921319 0)
(1.00313 0.000475627 0)
(1.00299 0.00153962 0)
(1.00333 0.00226463 0)
(1.00426 0.00198643 0)
(1.00475 0.00193678 0)
(1.00493 0.00232913 0)
(1.00545 0.00251178 0)
(1.00624 0.00240602 0)
(1.00705 0.00237844 0)
(1.00799 0.00251731 0)
(1.00926 0.00264348 0)
(1.01071 0.0026915 0)
(1.01204 0.00274633 0)
(1.01305 0.00286416 0)
(1.01361 0.00302617 0)
(1.01358 0.00316696 0)
(1.00007 9.1291e-06 0)
(0.999988 -0.000164645 0)
(1.0002 0.00107372 0)
(1.00182 0.00117517 0)
(1.00314 0.000705491 0)
(1.00312 0.00157125 0)
(1.00333 0.00239875 0)
(1.00415 0.0022404 0)
(1.00472 0.00209018 0)
(1.00495 0.00236495 0)
(1.00541 0.00258028 0)
(1.00616 0.00250909 0)
(1.00701 0.00242331 0)
(1.00799 0.00245782 0)
(1.00925 0.00252659 0)
(1.0107 0.00253169 0)
(1.01205 0.00253862 0)
(1.01309 0.00258658 0)
(1.01367 0.00268325 0)
(1.01363 0.00277353 0)
(1.00006 6.27246e-05 0)
(1.00006 -2.19419e-05 0)
(1.00028 0.00109886 0)
(1.00174 0.00139706 0)
(1.00311 0.000951342 0)
(1.00324 0.00162572 0)
(1.00335 0.00249819 0)
(1.00404 0.00249116 0)
(1.00466 0.00228533 0)
(1.00495 0.00243661 0)
(1.00538 0.00263443 0)
(1.00607 0.00259579 0)
(1.00693 0.00247115 0)
(1.00794 0.00240842 0)
(1.00921 0.00239597 0)
(1.01064 0.00234541 0)
(1.01201 0.00229655 0)
(1.01307 0.00227824 0)
(1.01368 0.00230777 0)
(1.01364 0.00234617 0)
(1.00004 0.000143556 0)
(1.00011 6.52385e-05 0)
(1.00037 0.00109929 0)
(1.00168 0.00158387 0)
(1.00307 0.00121641 0)
(1.00334 0.00172311 0)
(1.00339 0.00258631 0)
(1.00394 0.00272529 0)
(1.00456 0.00250856 0)
(1.00492 0.0025407 0)
(1.00532 0.00267917 0)
(1.00596 0.00265448 0)
(1.00681 0.00250541 0)
(1.00784 0.00236476 0)
(1.00911 0.00225908 0)
(1.01054 0.00214212 0)
(1.01192 0.00202529 0)
(1.01301 0.001942 0)
(1.01364 0.00190395 0)
(1.0136 0.00188756 0)
(1.00003 0.00017083 0)
(1.00015 0.00026562 0)
(1.00047 0.00117218 0)
(1.00163 0.00177951 0)
(1.00301 0.00152592 0)
(1.00342 0.00187733 0)
(1.00344 0.00269364 0)
(1.00384 0.00295163 0)
(1.00443 0.00276828 0)
(1.00484 0.00269358 0)
(1.00525 0.00275138 0)
(1.00584 0.00271088 0)
(1.00665 0.00254419 0)
(1.00768 0.00233752 0)
(1.00895 0.00214027 0)
(1.01038 0.00193925 0)
(1.01176 0.00174918 0)
(1.01288 0.00159308 0)
(1.01354 0.00148971 0)
(1.01351 0.00141562 0)
(1.00002 0.000233841 0)
(1.00019 0.000397065 0)
(1.00054 0.00123812 0)
(1.00159 0.00195305 0)
(1.00293 0.00184213 0)
(1.00346 0.00207885 0)
(1.00349 0.00281276 0)
(1.00375 0.00316424 0)
(1.00427 0.00303451 0)
(1.00471 0.00288248 0)
(1.00514 0.00284754 0)
(1.00568 0.00276634 0)
(1.00645 0.00257904 0)
(1.00746 0.00231063 0)
(1.00872 0.00202933 0)
(1.01015 0.00173188 0)
(1.01154 0.00146171 0)
(1.01268 0.00122771 0)
(1.01336 0.00105346 0)
(1.01335 0.000920528 0)
(1.00001 0.000300867 0)
(1.00021 0.000507621 0)
(1.00064 0.00131833 0)
(1.00158 0.00212208 0)
(1.00285 0.002165 0)
(1.00347 0.00232318 0)
(1.00354 0.00295427 0)
(1.00368 0.00336593 0)
(1.00411 0.00330615 0)
(1.00455 0.00311022 0)
(1.00498 0.00298496 0)
(1.0055 0.00284116 0)
(1.00622 0.00261278 0)
(1.00719 0.00228587 0)
(1.00842 0.00191225 0)
(1.00983 0.00151795 0)
(1.01123 0.00114646 0)
(1.0124 0.000826206 0)
(1.01311 0.000572021 0)
(1.01312 0.000371154 0)
(1.00001 0.000323063 0)
(1.00023 0.000736754 0)
(1.00071 0.00145707 0)
(1.00158 0.00230213 0)
(1.00276 0.00248822 0)
(1.00345 0.00261588 0)
(1.00356 0.0031373 0)
(1.00362 0.00358216 0)
(1.00393 0.00359605 0)
(1.00434 0.00338102 0)
(1.00477 0.00316944 0)
(1.00527 0.00294407 0)
(1.00593 0.00265195 0)
(1.00684 0.0022579 0)
(1.00803 0.00179403 0)
(1.00942 0.00129422 0)
(1.01082 0.00081416 0)
(1.01202 0.000387079 0)
(1.01277 4.36566e-05 0)
(1.01281 -0.000235065 0)
(1 0.0003613 0)
(1.00023 0.000942474 0)
(1.00077 0.00161848 0)
(1.00159 0.00247028 0)
(1.00267 0.00280229 0)
(1.00339 0.00293873 0)
(1.00356 0.00337013 0)
(1.00355 0.00381444 0)
(1.00374 0.00390254 0)
(1.00408 0.00369127 0)
(1.0045 0.00340717 0)
(1.00496 0.00309273 0)
(1.00557 0.00272202 0)
(1.00641 0.00224787 0)
(1.00754 0.00168939 0)
(1.00889 0.00107286 0)
(1.01029 0.000463762 0)
(1.01151 -9.43226e-05 0)
(1.01231 -0.000556947 0)
(1.01239 -0.00093603 0)
(1 0.000409924 0)
(1.00024 0.00110578 0)