/*--------------------------------*- C++ -*----------------------------------*\
| =========                 |                                                 |
| \\      /  F ield         | OpenFOAM: The Open Source CFD Toolbox           |
|  \\    /   O peration     | Version:  v2012                                 |
|   \\  /    A nd           | Website:  www.openfoam.com                      |
|    \\/     M anipulation  |                                                 |
\*---------------------------------------------------------------------------*/
FoamFile
{
    version     2.0;
    format      ascii;
    class       surfaceScalarField;
    location    "1.3";
    object      phi;
}
// * * * * * * * * * * * * * * * * * * * * * * * * * * * * * * * * * * * * * //

dimensions      [0 3 -1 0 0 0 0];
oriented        oriented;


internalField   nonuniform List<scalar> 
34900
(
1.17748e-06
2.16506e-07
1.1602e-06
-8.82329e-08
1.1665e-06
-1.35816e-07
1.1599e-06
1.57121e-07
1.16587e-06
-9.26992e-08
1.15608e-06
-5.63798e-08
1.16544e-06
-7.25383e-08
1.15921e-06
2.57639e-09
1.16981e-06
1.64132e-08
1.16265e-06
2.46145e-08
1.17207e-06
5.64851e-08
1.16354e-06
3.58795e-08
1.17172e-06
7.62854e-08
1.16136e-06
3.42624e-08
1.16868e-06
7.29479e-08
1.15633e-06
2.50232e-08
1.16272e-06
7.04389e-08
1.14899e-06
1.97079e-08
1.15035e-06
8.56244e-08
2.39864e-08
1.11307e-06
1.23079e-06
2.09979e-07
1.21557e-06
-7.30142e-08
1.22067e-06
-1.40916e-07
1.21738e-06
1.60409e-07
1.22196e-06
-9.72778e-08
1.21382e-06
-4.82364e-08
1.22114e-06
-7.98605e-08
1.21778e-06
5.9366e-09
1.22494e-06
9.25261e-09
1.22244e-06
2.71108e-08
1.22658e-06
5.23445e-08
1.22486e-06
3.76053e-08
1.22485e-06
7.62969e-08
1.22488e-06
3.42286e-08
1.21985e-06
7.79768e-08
1.22293e-06
2.19399e-08
1.21045e-06
8.29211e-08
1.21886e-06
1.13025e-08
1.19336e-06
1.11118e-07
2.05208e-08
1.19683e-06
1.28548e-06
2.07279e-07
1.27464e-06
-6.21744e-08
1.27602e-06
-1.42288e-07
1.27863e-06
1.57799e-07
1.27954e-06
-9.81933e-08
1.27629e-06
-4.49876e-08
1.27825e-06
-8.18187e-08
1.2808e-06
3.38477e-09
1.2817e-06
8.35119e-09
1.28619e-06
2.263e-08
1.28327e-06
5.52604e-08
1.28884e-06
3.20299e-08
1.28197e-06
8.31743e-08
1.28836e-06
2.78406e-08
1.27843e-06
8.79016e-08
1.28445e-06
1.59184e-08
1.27263e-06
9.4744e-08
1.27601e-06
7.92107e-09
1.26335e-06
1.23782e-07
3.4649e-08
1.24922e-06
1.34265e-06
2.08736e-07
1.33773e-06
-5.72545e-08
1.33397e-06
-1.3853e-07
1.34205e-06
1.49713e-07
1.33944e-06
-9.55779e-08
1.34085e-06
-4.63947e-08
1.33771e-06
-7.86838e-08
1.34441e-06
-3.31667e-09
1.34127e-06
1.14954e-08
1.3491e-06
1.47979e-08
1.34391e-06
6.04476e-08
1.35076e-06
2.51854e-08
1.34444e-06
8.94921e-08
1.3494e-06
2.2876e-08
1.34307e-06
9.42367e-08
1.345e-06
1.39884e-08
1.33934e-06
1.00407e-07
1.33661e-06
1.06488e-08
1.33117e-06
1.29224e-07
5.25904e-08
1.31323e-06
1.40357e-06
2.13517e-07
1.4042e-06
-5.78796e-08
1.39598e-06
-1.3031e-07
1.40709e-06
1.38605e-07
1.40282e-06
-9.1311e-08
1.40647e-06
-5.00503e-08
1.40077e-06
-7.29801e-08
1.40803e-06
-1.05776e-08
1.40449e-06
1.5032e-08
1.41173e-06
7.5638e-09
1.40827e-06
6.39062e-08
1.41314e-06
2.03164e-08
1.41008e-06
9.25531e-08
1.41249e-06
2.04679e-08
1.40962e-06
9.71062e-08
1.40922e-06
1.43891e-08
1.4063e-06
1.03319e-07
1.40156e-06
1.5396e-08
1.3982e-06
1.32582e-07
7.04069e-08
1.38038e-06
1.46935e-06
2.19843e-07
1.47355e-06
-6.20769e-08
1.46312e-06
-1.19887e-07
1.47436e-06
1.2737e-07
1.47065e-06
-8.75983e-08
1.47412e-06
-5.35253e-08
1.46827e-06
-6.7126e-08
1.47373e-06
-1.6039e-08
1.47156e-06
1.72007e-08
1.47684e-06
2.28849e-09
1.47564e-06
6.51061e-08
1.47873e-06
1.72228e-08
1.47789e-06
9.339e-08
1.47919e-06
1.91746e-08
1.47794e-06
9.83519e-08
1.47687e-06
1.54639e-08
1.4752e-06
1.04982e-07
1.46938e-06
2.12193e-08
1.46762e-06
1.34337e-07
8.80909e-08
1.44994e-06
1.54036e-06
2.25701e-07
1.54578e-06
-6.7495e-08
1.53556e-06
-1.09668e-07
1.5451e-06
1.17823e-07
1.54303e-06
-8.55212e-08
1.54525e-06
-5.57514e-08
1.54019e-06
-6.20605e-08
1.54347e-06
-1.93222e-08
1.54239e-06
1.82777e-08
1.54609e-06
-1.40716e-09
1.54609e-06
6.5107e-08
1.54836e-06
1.49486e-08
1.54852e-06
9.32381e-08
1.54953e-06
1.81626e-08
1.54917e-06
9.87041e-08
1.54772e-06
1.69158e-08
1.5472e-06
1.05509e-07
1.5403e-06
2.81186e-08
1.54005e-06
1.34583e-07
1.05306e-07
1.52284e-06
1.61614e-06
2.29695e-07
1.62112e-06
-7.24789e-08
1.61251e-06
-1.01059e-07
1.62003e-06
1.10299e-07
1.61938e-06
-8.48623e-08
1.62051e-06
-5.68875e-08
1.6161e-06
-5.76522e-08
1.61787e-06
-2.10871e-08
1.61707e-06
1.90805e-08
1.61981e-06
-4.15643e-09
1.62013e-06
6.47866e-08
1.62207e-06
1.30141e-08
1.62267e-06
9.26353e-08
1.62353e-06
1.73086e-08
1.62393e-06
9.82969e-08
1.62199e-06
1.88601e-08
1.62262e-06
1.0488e-07
1.6147e-06
3.60403e-08
1.61564e-06
1.3364e-07
1.21517e-07
1.59943e-06
1.69585e-06
2.31421e-07
1.69974e-06
-7.6368e-08
1.693e-06
-9.43233e-08
1.69906e-06
1.04236e-07
1.69905e-06
-8.48519e-08
1.69969e-06
-5.75242e-08
1.69563e-06
-5.35895e-08
1.69665e-06
-2.21062e-08
1.69567e-06
2.00575e-08
1.69785e-06
-6.33529e-09
1.69814e-06
6.44994e-08
1.69982e-06
1.13326e-08
1.70073e-06
9.17266e-08
1.70129e-06
1.67402e-08
1.70246e-06
9.71339e-08
1.69986e-06
2.14596e-08
1.70159e-06
1.03147e-07
1.69279e-06
4.48424e-08
1.69451e-06
1.31922e-07
1.36227e-07
1.6798e-06
1.77892e-06
2.31227e-07
1.78172e-06
-7.9172e-08
1.7765e-06
-8.90982e-08
1.78179e-06
9.89359e-08
1.78178e-06
-8.48389e-08
1.78239e-06
-5.81285e-08
1.77857e-06
-4.97692e-08
1.77939e-06
-2.2934e-08
1.77822e-06
2.123e-08
1.78003e-06
-8.14189e-09
1.78025e-06
6.42773e-08
1.78163e-06
9.94796e-09
1.78285e-06
9.05064e-08
1.78296e-06
1.66365e-08
1.78489e-06
9.51982e-08
1.7815e-06
2.48496e-08
1.78419e-06
1.00456e-07
1.77474e-06
5.42943e-08
1.77675e-06
1.29916e-07
1.49017e-07
1.76396e-06
1.86527e-06
2.29708e-07
1.86722e-06
-8.11265e-08
1.86304e-06
-8.49177e-08
1.86803e-06
9.3946e-08
1.86768e-06
-8.44922e-08
1.86847e-06
-5.89117e-08
1.86494e-06
-4.62392e-08
1.8659e-06
-2.38985e-08
1.86471e-06
2.24219e-08
1.86628e-06
-9.70868e-09
1.86655e-06
6.40082e-08
1.86757e-06
8.91941e-09
1.86918e-06
8.89009e-08
1.86866e-06
1.71595e-08
1.87137e-06
9.24843e-08
1.86713e-06
2.9088e-08
1.87053e-06
9.70584e-08
1.86075e-06
6.40713e-08
1.86251e-06
1.28157e-07
1.5958e-07
1.85195e-06
1.95519e-06
2.27361e-07
1.95651e-06
-8.24473e-08
1.95303e-06
-8.14382e-08
1.95791e-06
8.90666e-08
1.95714e-06
-8.37226e-08
1.95813e-06
-5.99038e-08
1.95495e-06
-4.30547e-08
1.95619e-06
-2.51475e-08
1.95518e-06
2.34405e-08
1.95659e-06
-1.11206e-08
1.95706e-06
6.3531e-08
1.95769e-06
8.29914e-09
1.95978e-06
8.68024e-08
1.95853e-06
1.84179e-08
1.96199e-06
8.90222e-08
1.95696e-06
3.41169e-08
1.96072e-06
9.32998e-08
1.95101e-06
7.37807e-08
1.95204e-06
1.27125e-07
1.67785e-07
1.94383e-06
2.04907e-06
2.24483e-07
2.0499e-06
-8.32822e-08
2.04691e-06
-7.84505e-08
2.05175e-06
8.42355e-08
2.05059e-06
-8.25705e-08
2.05174e-06
-6.10488e-08
2.0489e-06
-4.02181e-08
2.05044e-06
-2.66881e-08
2.04973e-06
2.41505e-08
2.05101e-06
-1.23992e-08
2.05186e-06
6.26855e-08
2.05202e-06
8.13839e-09
2.05472e-06
8.40996e-08
2.05269e-06
2.04483e-08
2.05682e-06
8.48952e-08
2.05118e-06
3.97525e-08
2.0549e-06
8.95846e-08
2.04566e-06
8.30127e-08
2.04563e-06
1.27158e-07
1.73715e-07
2.0397e-06
2.14726e-06
2.21224e-07
2.14771e-06
-8.3734e-08
2.14509e-06
-7.58314e-08
2.14989e-06
7.94423e-08
2.14845e-06
-8.11384e-08
2.14967e-06
-6.22655e-08
2.14715e-06
-3.7696e-08
2.14889e-06
-2.84309e-08
2.14857e-06
2.44731e-08
2.14967e-06
-1.34988e-08
2.15102e-06
6.13347e-08
2.15067e-06
8.48981e-09
2.15406e-06
8.07096e-08
2.1513e-06
2.32066e-08
2.15594e-06
8.02546e-08
2.14999e-06
4.5705e-08
2.15324e-06
8.63272e-08
2.14486e-06
9.1401e-08
2.1436e-06
1.28412e-07
1.77639e-07
2.13968e-06
2.25006e-06
2.17658e-07
2.2502e-06
-8.38755e-08
2.24787e-06
-7.35098e-08
2.25262e-06
7.4698e-08
2.25104e-06
-7.9556e-08
2.25224e-06
-6.34727e-08
2.25001e-06
-3.54604e-08
2.25181e-06
-3.02361e-08
2.25193e-06
2.43548e-08
2.25276e-06
-1.43251e-08
2.25472e-06
5.93716e-08
2.25381e-06
9.39605e-09
2.25792e-06
7.66079e-08
2.25456e-06
2.65628e-08
2.25949e-06
7.53242e-08
2.25357e-06
5.16291e-08
2.256e-06
8.38964e-08
2.24872e-06
9.86752e-08
2.24629e-06
1.3085e-07
1.79968e-07
2.24396e-06
2.35771e-06
2.13821e-07
2.35759e-06
-8.37489e-08
2.35553e-06
-7.14565e-08
2.3602e-06
7.00329e-08
2.3586e-06
-7.79604e-08
2.35972e-06
-6.4592e-08
2.35778e-06
-3.35184e-08
2.35949e-06
-3.19498e-08
2.36011e-06
2.3743e-08
2.36055e-06
-1.47676e-08
2.3632e-06
5.6724e-08
2.36172e-06
1.08668e-08
2.36648e-06
7.18507e-08
2.36274e-06
3.03014e-08
2.36768e-06
7.03881e-08
2.36213e-06
5.71834e-08
2.36346e-06
8.25616e-08
2.35743e-06
1.04709e-07
2.35401e-06
1.34266e-07
1.81187e-07
2.35279e-06
2.47049e-06
2.09728e-07
2.4701e-06
-8.33625e-08
2.46833e-06
-6.96813e-08
2.47286e-06
6.54982e-08
2.47139e-06
-7.64871e-08
2.47234e-06
-6.5541e-08
2.47074e-06
-3.19188e-08
2.47221e-06
-3.34242e-08
2.47338e-06
2.2576e-08
2.47334e-06
-1.47287e-08
2.4767e-06
5.33627e-08
2.47472e-06
1.28517e-08
2.47998e-06
6.6583e-08
2.47615e-06
3.41384e-08
2.48078e-06
6.57592e-08
2.47588e-06
6.20809e-08
2.47599e-06
8.2454e-08
2.47114e-06
1.09557e-07
2.46709e-06
1.38312e-07
1.81789e-07
2.46649e-06
2.58864e-06
2.05383e-07
2.58797e-06
-8.26925e-08
2.58652e-06
-6.82297e-08
2.59085e-06
6.11654e-08
2.58963e-06
-7.52688e-08
2.59032e-06
-6.62295e-08
2.58914e-06
-3.07418e-08
2.59025e-06
-3.45302e-08
2.59203e-06
2.07936e-08
2.59145e-06
-1.41498e-08
2.5955e-06
4.93165e-08
2.59313e-06
1.52212e-08
2.59869e-06
6.10265e-08
2.59507e-06
3.77577e-08
2.5991e-06
6.173e-08
2.59505e-06
6.61224e-08
2.59396e-06
8.35443e-08
2.59008e-06
1.13441e-07
2.58583e-06
1.42565e-07
1.82218e-07
2.5854e-06
2.71243e-06
2.00778e-07
2.71143e-06
-8.1689e-08
2.71038e-06
-6.7178e-08
2.71442e-06
5.71236e-08
2.71359e-06
-7.44373e-08
2.71392e-06
-6.65602e-08
2.71326e-06
-3.00812e-08
2.71389e-06
-3.51652e-08
2.71633e-06
1.83571e-08
2.71522e-06
-1.30356e-08
2.71984e-06
4.46876e-08
2.7173e-06
1.7764e-08
2.72288e-06
5.54504e-08
2.71978e-06
4.08571e-08
2.72299e-06
5.8523e-08
2.71988e-06
6.92278e-08
2.71777e-06
8.5652e-08
2.71453e-06
1.16685e-07
2.71045e-06
1.46641e-07
1.82784e-07
2.70989e-06
2.84215e-06
1.959e-07
2.84074e-06
-8.02815e-08
2.84019e-06
-6.66279e-08
2.84384e-06
5.3475e-08
2.84352e-06
-7.41228e-08
2.8434e-06
-6.64377e-08
2.84334e-06
-3.00231e-08
2.84345e-06
-3.52679e-08
2.84653e-06
1.52757e-08
2.84496e-06
-1.1471e-08
2.84999e-06
3.96553e-08
2.84755e-06
2.02045e-08
2.85287e-06
5.01347e-08
2.85053e-06
4.3193e-08
2.85281e-06
5.62462e-08
2.85059e-06
7.14497e-08
2.84774e-06
8.84971e-08
2.84482e-06
1.19606e-07
2.84116e-06
1.503e-07
1.83622e-07
2.84033e-06
2.97807e-06
1.9073e-07
2.97617e-06
-7.83834e-08
2.97624e-06
-6.67008e-08
2.97939e-06
5.03285e-08
2.97971e-06
-7.44489e-08
2.97906e-06
-6.57809e-08
2.97966e-06
-3.06246e-08
2.97923e-06
-3.48364e-08
2.98287e-06
1.16314e-08
2.98103e-06
-9.63181e-09
2.98622e-06
3.44635e-08
2.98419e-06
2.22372e-08
2.98899e-06
4.53299e-08
2.98756e-06
4.46238e-08
2.98895e-06
5.48589e-08
2.98744e-06
7.29568e-08
2.9842e-06
9.1743e-08
2.98135e-06
1.2245e-07
2.97815e-06
1.53504e-07
1.84704e-07
2.97707e-06
3.12048e-06
1.85252e-07
3.118e-06
-7.58969e-08
3.11883e-06
-6.75307e-08
3.12137e-06
4.77894e-08
3.12244e-06
-7.55196e-08
3.1212e-06
-6.45424e-08
3.12247e-06
-3.18907e-08
3.12158e-06
-3.39473e-08
3.12562e-06
7.59174e-09
3.12376e-06
-7.77365e-09
3.12883e-06
2.93901e-08
3.12749e-06
2.35754e-08
3.13162e-06
4.12065e-08
3.1311e-06
4.51366e-08
3.13179e-06
5.41754e-08
3.13077e-06
7.39725e-08
3.12747e-06
9.50407e-08
3.12455e-06
1.25376e-07
3.12162e-06
1.56429e-07
1.8591e-07
3.12042e-06
3.26971e-06
1.79448e-07
3.26654e-06
-7.27188e-08
3.26826e-06
-6.92548e-08
3.2701e-06
4.59472e-08
3.27199e-06
-7.74047e-08
3.27017e-06
-6.27293e-08
3.27203e-06
-3.3751e-08
3.27086e-06
-3.27702e-08
3.27504e-06
3.4106e-09
3.27347e-06
-6.20926e-09
3.27816e-06
2.47019e-08
3.27772e-06
2.40221e-08
3.28113e-06
3.77933e-08
3.28142e-06
4.48416e-08
3.28169e-06
5.39131e-08
3.28097e-06
7.46881e-08
3.27791e-06
9.80979e-08
3.27486e-06
1.28429e-07
3.2719e-06
1.5939e-07
1.87185e-07
3.27062e-06
3.42607e-06
1.73305e-07
3.4221e-06
-6.87467e-08
3.42485e-06
-7.20007e-08
3.42594e-06
4.48596e-08
3.42865e-06
-8.0119e-08
3.42635e-06
-6.04293e-08
3.42864e-06
-3.60373e-08
3.42744e-06
-3.157e-08
3.43145e-06
-6.06683e-10
3.43048e-06
-5.23647e-09
3.43461e-06
2.05715e-08
3.43508e-06
2.35525e-08
3.43795e-06
3.49272e-08
3.43884e-06
4.39507e-08
3.43899e-06
5.37595e-08
3.43843e-06
7.52547e-08
3.43571e-06
1.00809e-07
3.4326e-06
1.31543e-07
3.4294e-06
1.62586e-07
1.88757e-07
3.42783e-06
3.5899e-06
1.66813e-07
3.58505e-06
-6.38893e-08
3.58891e-06
-7.58675e-08
3.58924e-06
4.453e-08
3.59272e-06
-8.35954e-08
3.59013e-06
-5.78392e-08
3.59256e-06
-3.84713e-08
3.59168e-06
-3.06903e-08
3.59522e-06
-4.14228e-09
3.59507e-06
-5.08407e-09
3.59861e-06
1.70259e-08
3.59985e-06
2.23147e-08
3.60245e-06
3.23229e-08
3.6037e-06
4.27062e-08
3.60391e-06
5.35459e-08
3.60306e-06
7.61068e-08
3.60042e-06
1.03452e-07
3.59735e-06
1.34611e-07
3.59436e-06
1.65579e-07
1.91071e-07
3.59204e-06
3.76155e-06
1.59971e-07
3.75574e-06
-5.80791e-08
3.76077e-06
-8.09013e-08
3.76042e-06
4.48813e-08
3.76449e-06
-8.76674e-08
3.76191e-06
-5.52604e-08
3.76414e-06
-4.06983e-08
3.76394e-06
-3.04869e-08
3.76674e-06
-6.95056e-09
3.76748e-06
-5.81911e-09
3.77061e-06
1.38978e-08
3.77233e-06
2.05951e-08
3.77493e-06
2.97241e-08
3.77622e-06
4.14119e-08
3.77597e-06
5.37988e-08
3.77374e-06
7.83299e-08
3.77069e-06
1.06507e-07
3.76778e-06
1.37522e-07
3.76578e-06
1.67574e-07
1.93649e-07
3.76321e-06
3.94137e-06
1.52789e-07
3.93458e-06
-5.1289e-08
3.94074e-06
-8.70633e-08
3.93989e-06
4.57284e-08
3.94427e-06
-9.20472e-08
3.94212e-06
-5.31073e-08
3.94373e-06
-4.2308e-08
3.94451e-06
-3.12703e-08
3.94651e-06
-8.94285e-09
3.94795e-06
-7.26503e-09
3.95099e-06
1.0857e-08
3.95283e-06
1.87582e-08
3.95537e-06
2.71865e-08
3.95589e-06
4.08894e-08
3.95327e-06
5.64186e-08
3.94979e-06
8.18088e-08
3.94642e-06
1.09879e-07
3.9438e-06
1.40144e-07
3.94258e-06
1.68792e-07
1.94656e-07
3.94157e-06
4.12975e-06
1.45291e-07
4.12201e-06
-4.35479e-08
4.12915e-06
-9.42037e-08
4.12811e-06
4.67682e-08
4.1324e-06
-9.63375e-08
4.13116e-06
-5.18675e-08
4.13175e-06
-4.28985e-08
4.1337e-06
-3.32212e-08
4.13498e-06
-1.02205e-08
4.13679e-06
-9.07394e-09
4.13999e-06
7.65068e-09
4.14146e-06
1.72934e-08
4.14311e-06
2.55344e-08
4.14107e-06
4.29258e-08
4.13666e-06
6.0833e-08
4.13271e-06
8.57574e-08
4.12956e-06
1.13029e-07
4.12735e-06
1.4235e-07
4.12645e-06
1.69695e-07
1.93448e-07
4.12766e-06
4.32708e-06
1.37518e-07
4.31849e-06
-3.49585e-08
4.32631e-06
-1.02024e-07
4.32551e-06
4.7561e-08
4.32922e-06
-1.00045e-07
4.32939e-06
-5.20374e-08
4.32867e-06
-4.21817e-08
4.33174e-06
-3.62883e-08
4.33261e-06
-1.10854e-08
4.33429e-06
-1.07554e-08
4.3375e-06
4.44294e-09
4.3378e-06
1.69874e-08
4.33667e-06
2.6663e-08
4.33319e-06
4.64035e-08
4.32837e-06
6.56571e-08
4.32446e-06
8.96665e-08
4.32175e-06
1.1574e-07
4.32005e-06
1.44054e-07
4.31974e-06
1.7e-07
1.91052e-07
4.32214e-06
4.53376e-06
1.29528e-07
4.52451e-06
-2.57057e-08
4.53255e-06
-1.10062e-07
4.53256e-06
4.7554e-08
4.53516e-06
-1.02648e-07
4.53711e-06
-5.39935e-08
4.53506e-06
-4.01298e-08
4.53886e-06
-4.00845e-08
4.53976e-06
-1.19828e-08
4.54058e-06
-1.15812e-08
4.54307e-06
1.95623e-09
4.54154e-06
1.85199e-08
4.53795e-06
3.02472e-08
4.53428e-06
5.00798e-08
4.52969e-06
7.02429e-08
4.52604e-06
9.33127e-08
4.52372e-06
1.18068e-07
4.5226e-06
1.45175e-07
4.52323e-06
1.69365e-07
1.88514e-07
4.52577e-06
4.75024e-06
1.214e-07
4.7406e-06
-1.60649e-08
4.74823e-06
-1.17688e-07
4.74964e-06
4.61471e-08
4.75071e-06
-1.03721e-07
4.75456e-06
-5.78482e-08
4.7515e-06
-3.70675e-08
4.75532e-06
-4.3903e-08
4.75654e-06
-1.3208e-08
4.75571e-06
-1.07492e-08
4.75659e-06
1.07484e-09
4.75361e-06
2.15023e-08
4.74895e-06
3.49111e-08
4.74532e-06
5.37036e-08
4.74129e-06
7.42734e-08
4.73792e-06
9.66837e-08
4.73587e-06
1.20116e-07
4.73549e-06
1.45562e-07
4.73681e-06
1.68044e-07
1.85954e-07
4.73937e-06
4.97697e-06
1.13231e-07
4.96729e-06
-6.38874e-09
4.97375e-06
-1.24146e-07
4.97712e-06
4.27752e-08
4.97646e-06
-1.03063e-07
4.98195e-06
-6.3332e-08
4.97851e-06
-3.36325e-08
4.98143e-06
-4.68171e-08
4.98285e-06
-1.46362e-08
4.98003e-06
-7.92812e-09
4.97906e-06
2.04485e-09
4.97549e-06
2.50754e-08
4.97051e-06
3.98879e-08
4.96699e-06
5.72258e-08
4.96358e-06
7.76844e-08
4.96048e-06
9.97851e-08
4.95869e-06
1.21909e-07
4.95902e-06
1.45229e-07
4.96069e-06
1.66377e-07
1.83133e-07
4.96351e-06
5.21442e-06
1.05129e-07
5.20512e-06
2.91202e-09
5.20961e-06
-1.28639e-07
5.21533e-06
3.7055e-08
5.21308e-06
-1.00815e-07
5.21955e-06
-6.97975e-08
5.21642e-06
-3.05023e-08
5.21757e-06
-4.79689e-08
5.2187e-06
-1.57661e-08
5.21426e-06
-3.48686e-09
5.21169e-06
4.6076e-09
5.20814e-06
2.86305e-08
5.20321e-06
4.48192e-08
5.19977e-06
6.0669e-08
5.19691e-06
8.05368e-08
5.19413e-06
1.02568e-07
5.19268e-06
1.23359e-07
5.19343e-06
1.44479e-07
5.19542e-06
1.64386e-07
1.79949e-07
5.1986e-06
5.46311e-06
9.72043e-08
5.45462e-06
1.14076e-08
5.45653e-06
-1.3055e-07
5.46453e-06
2.90511e-08
5.46119e-06
-9.74682e-08
5.46779e-06
-7.63969e-08
5.4653e-06
-2.80152e-08
5.46436e-06
-4.70267e-08
5.4646e-06
-1.60058e-08
5.45922e-06
1.89139e-09
5.45549e-06
8.33509e-09
5.45226e-06
3.18644e-08
5.44754e-06
4.95351e-08
5.44411e-06
6.41047e-08
5.44171e-06
8.29356e-08
5.43935e-06
1.04923e-07
5.43832e-06
1.24393e-07
5.43919e-06
1.43608e-07
5.44155e-06
1.62026e-07
1.7638e-07
5.44512e-06
5.7236e-06
8.95624e-08
5.71632e-06
1.86845e-08
5.71544e-06
-1.29665e-07
5.72502e-06
1.94701e-08
5.72128e-06
-9.37327e-08
5.72717e-06
-8.22822e-08
5.72528e-06
-2.61243e-08
5.72245e-06
-4.42005e-08
5.72153e-06
-1.5084e-08
5.71572e-06
7.70068e-09
5.71123e-06
1.28209e-08
5.7084e-06
3.46971e-08
5.70402e-06
5.39175e-08
5.70051e-06
6.76135e-08
5.69843e-06
8.50123e-08
5.69666e-06
1.06693e-07
5.69603e-06
1.25029e-07
5.69692e-06
1.42721e-07
5.69959e-06
1.59349e-07
1.72426e-07
5.70355e-06
5.99647e-06
8.22875e-08
5.99078e-06
2.43731e-08
5.98722e-06
-1.26106e-07
5.99723e-06
9.46301e-09
5.99375e-06
-9.0251e-08
5.99832e-06
-8.6855e-08
5.99673e-06
-2.45344e-08
5.99242e-06
-3.98944e-08
5.99053e-06
-1.3189e-08
5.98456e-06
1.36715e-08
5.97963e-06
1.77429e-08
5.97708e-06
3.72491e-08
5.97316e-06
5.78402e-08
5.96955e-06
7.12258e-08
5.96764e-06
8.69225e-08
5.96659e-06
1.07743e-07
5.9663e-06
1.2531e-07
5.96724e-06
1.41783e-07
5.97013e-06
1.56461e-07
1.68124e-07
5.97443e-06
6.28234e-06
7.54334e-08
6.27852e-06
2.81976e-08
6.27266e-06
-1.20252e-07
6.28183e-06
2.95811e-10
6.27888e-06
-8.72994e-08
6.28194e-06
-8.99182e-08
6.28035e-06
-2.29377e-08
6.27483e-06
-3.4376e-08
6.27233e-06
-1.06932e-08
6.2665e-06
1.9508e-08
6.26124e-06
2.29952e-08
6.25887e-06
3.962e-08
6.25549e-06
6.12235e-08
6.25182e-06
7.48991e-08
6.24993e-06
8.88053e-08
6.24961e-06
1.08063e-07
6.24971e-06
1.25214e-07
6.25078e-06
1.40708e-07
6.25379e-06
1.53459e-07
1.63544e-07
6.25837e-06
6.58187e-06
6.90287e-08
6.58005e-06
3.0025e-08
6.57245e-06
-1.12653e-07
6.57974e-06
-6.99775e-09
6.57713e-06
-8.46874e-08
6.57878e-06
-9.15688e-08
6.57699e-06
-2.11479e-08
6.57054e-06
-2.79261e-08
6.56768e-06
-7.83023e-09
6.56219e-06
2.49933e-08
6.55667e-06
2.85154e-08
6.55437e-06
4.19263e-08
6.55157e-06
6.40163e-08
6.54795e-06
7.85255e-08
6.546e-06
9.07478e-08
6.54628e-06
1.07782e-07
6.54684e-06
1.24662e-07
6.54816e-06
1.39387e-07
6.55122e-06
1.50397e-07
1.58786e-07
6.55598e-06
6.89574e-06
6.30755e-08
6.89581e-06
2.99603e-08
6.88718e-06
-1.04029e-07
6.89201e-06
-1.18218e-08
6.88909e-06
-8.17663e-08
6.88958e-06
-9.20659e-08
6.8875e-06
-1.90651e-08
6.88052e-06
-2.09484e-08
6.87732e-06
-4.62179e-09
6.87232e-06
2.99912e-08
6.86657e-06
3.4266e-08
6.86418e-06
4.43125e-08
6.862e-06
6.61967e-08
6.85859e-06
8.19316e-08
6.85657e-06
9.27692e-08
6.85722e-06
1.07138e-07
6.85829e-06
1.23584e-07
6.85998e-06
1.37698e-07
6.86311e-06
1.47268e-07
1.53949e-07
6.86795e-06
7.22467e-06
5.75466e-08
7.22629e-06
2.83334e-08
7.21748e-06
-9.5217e-08
7.21959e-06
-1.39356e-08
7.21567e-06
-7.78413e-08
7.215e-06
-9.13999e-08
7.21269e-06
-1.67519e-08
7.20546e-06
-1.3716e-08
7.202e-06
-1.16251e-09
7.19755e-06
3.44421e-08
7.19163e-06
4.0187e-08
7.18899e-06
4.69489e-08
7.18739e-06
6.78015e-08
7.18442e-06
8.49017e-08
7.18238e-06
9.48047e-08
7.1831e-06
1.06414e-07
7.18472e-06
1.21968e-07
7.18689e-06
1.35528e-07
7.19016e-06
1.44003e-07
1.49108e-07
7.195e-06
7.56939e-06
5.23868e-08
7.57212e-06
2.55996e-08
7.56385e-06
-8.69514e-08
7.56345e-06
-1.35365e-08
7.55795e-06
-7.2338e-08
7.55601e-06
-8.94601e-08
7.55342e-06
-1.41579e-08
7.54607e-06
-6.36422e-09
7.54239e-06
2.5086e-09
7.5386e-06
3.82373e-08
7.53258e-06
4.6208e-08
7.52954e-06
4.99869e-08
7.5284e-06
6.89454e-08
7.52606e-06
8.72345e-08
7.52416e-06
9.67089e-08
7.52473e-06
1.0584e-07
7.52681e-06
1.1989e-07
7.52954e-06
1.32802e-07
7.53304e-06
1.40502e-07
1.44281e-07
7.53787e-06
7.93067e-06
4.7528e-08
7.93392e-06
2.23469e-08
7.92694e-06
-7.99662e-08
7.92434e-06
-1.09373e-08
7.91705e-06
-6.50546e-08
7.91363e-06
-8.60356e-08
7.91061e-06
-1.11406e-08
7.9031e-06
1.14466e-09
7.89926e-06
6.35537e-09
7.89617e-06
4.13264e-08
7.8902e-06
5.21766e-08
7.88664e-06
5.35474e-08
7.88576e-06
6.98256e-08
7.88421e-06
8.87886e-08
7.88262e-06
9.82914e-08
7.88295e-06
1.05517e-07
7.88533e-06
1.17507e-07
7.88862e-06
1.29512e-07
7.89246e-06
1.3666e-07
1.39426e-07
7.89731e-06
8.3093e-06
4.29043e-08
8.31259e-06
1.90621e-08
8.30717e-06
-7.45486e-08
8.30299e-06
-6.75306e-09
8.29385e-06
-5.5915e-08
8.28887e-06
-8.10549e-08
8.2853e-06
-7.57122e-09
8.27742e-06
9.02763e-09
8.27334e-06
1.04352e-08
8.27095e-06
4.37165e-08
8.26528e-06
5.78435e-08
8.26114e-06
5.76837e-08
8.26028e-06
7.06868e-08
8.25956e-06
8.95144e-08
8.25846e-06
9.93839e-08
8.2586e-06
1.05378e-07
8.26111e-06
1.15e-07
8.26489e-06
1.25735e-07
8.26914e-06
1.32403e-07
1.34464e-07
8.2741e-06
8.70611e-06
3.8454e-08
8.7091e-06
1.60729e-08
8.705e-06
-7.04517e-08
8.70017e-06
-1.92363e-09
8.68906e-06
-4.47967e-08
8.68255e-06
-7.45485e-08
8.67843e-06
-3.45448e-09
8.67002e-06
1.74388e-08
8.66544e-06
1.50199e-08
8.66366e-06
4.54927e-08
8.6586e-06
6.29014e-08
8.65394e-06
6.23451e-08
8.65285e-06
7.1775e-08
8.65289e-06
8.94791e-08
8.65239e-06
9.98799e-08
8.65254e-06
1.05227e-07
8.65504e-06
1.12505e-07
8.65916e-06
1.21612e-07
8.66385e-06
1.27712e-07
1.29304e-07
8.66901e-06
9.12195e-06
3.41236e-08
9.12429e-06
1.37374e-08
9.12137e-06
-6.75358e-08
9.11622e-06
3.22849e-09
9.1035e-06
-3.20756e-08
9.09553e-06
-6.65844e-08
9.09096e-06
1.12161e-09
9.08191e-06
2.6485e-08
9.0765e-06
2.04336e-08
9.07512e-06
4.68709e-08
9.07093e-06
6.70926e-08
9.06595e-06
6.73247e-08
9.06444e-06
7.32861e-08
9.06501e-06
8.89071e-08
9.0652e-06
9.96853e-08
9.0656e-06
1.04831e-07
9.06804e-06
1.10065e-07
9.07235e-06
1.17305e-07
9.07742e-06
1.22634e-07
1.23879e-07
9.08285e-06
9.5577e-06
2.98834e-08
9.55894e-06
1.24935e-08
9.55698e-06
-6.55753e-08
9.55192e-06
8.29524e-09
9.5379e-06
-1.80572e-08
9.52852e-06
-5.72037e-08
9.52364e-06
5.99774e-09
9.51411e-06
3.60188e-08
9.5075e-06
2.70456e-08
9.50622e-06
4.81497e-08
9.50303e-06
7.02806e-08
9.49806e-06
7.22976e-08
9.49604e-06
7.53062e-08
9.49681e-06
8.81374e-08
9.49775e-06
9.87435e-08
9.49859e-06
1.03989e-07
9.50102e-06
1.07632e-07
9.50539e-06
1.12943e-07
9.51075e-06
1.17265e-07
1.18164e-07
9.51647e-06
1.00143e-05
2.57298e-08
1.00143e-05
1.25222e-08
1.00127e-05
-6.40594e-08
1.0008e-05
1.30089e-08
9.99298e-06
-3.00446e-09
9.98223e-06
-4.6456e-08
9.97729e-06
1.09378e-08
9.96757e-06
4.5741e-08
9.95951e-06
3.51064e-08
9.95795e-06
4.97105e-08
9.95575e-06
7.24768e-08
9.95115e-06
7.68992e-08
9.94866e-06
7.779e-08
9.9493e-06
8.75032e-08
9.95093e-06
9.71098e-08
9.95237e-06
1.02548e-07
9.95491e-06
1.05092e-07
9.95926e-06
1.08591e-07
9.96481e-06
1.1172e-07
1.12182e-07
9.97079e-06
1.04927e-05
2.16867e-08
1.04915e-05
1.37012e-08
1.04895e-05
-6.20098e-08
1.04855e-05
1.69658e-08
1.04696e-05
1.28449e-08
1.04575e-05
-3.43548e-08
1.04527e-05
1.57437e-08
1.04432e-05
5.52982e-08
1.04337e-05
4.46143e-08
1.04314e-05
5.20275e-08
1.043e-05
7.38324e-08
1.04261e-05
8.08059e-08
1.04233e-05
8.05768e-08
1.04236e-05
8.72102e-08
1.04257e-05
9.49848e-08
1.04278e-05
1.00433e-07
1.04306e-05
1.02297e-07
1.0435e-05
1.04243e-07
1.04406e-05
1.06095e-07
1.05996e-07
1.04468e-05
1.09939e-05
1.77938e-08
1.09919e-05
1.56822e-08
1.09882e-05
-5.83288e-08
1.0985e-05
2.01872e-08
1.0969e-05
2.88387e-08
1.09555e-05
-2.07878e-08
1.09508e-05
2.04427e-08
1.09419e-05
6.41817e-08
1.09312e-05
5.5329e-08
1.09276e-05
5.5593e-08
1.09268e-05
7.46264e-08
1.09238e-05
8.38138e-08
1.0921e-05
8.34178e-08
1.09209e-05
8.72922e-08
1.09232e-05
9.26811e-08
1.0926e-05
9.76552e-08
1.09292e-05
9.90997e-08
1.09336e-05
9.98313e-08
1.09392e-05
1.00442e-07
9.96742e-08
1.09455e-05
1.1519e-05
1.41228e-08
1.15156e-05
1.91417e-08
1.1511e-05
-5.37772e-08
1.15079e-05
2.32655e-08
1.14921e-05
4.47318e-08
1.14771e-05
-5.80128e-09
1.14723e-05
2.52005e-08
1.14646e-05
7.19385e-08
1.14531e-05
6.67619e-08
1.14479e-05
6.07889e-08
1.14473e-05
7.52782e-08
1.14452e-05
8.58625e-08
1.14426e-05
8.60198e-08
1.14423e-05
8.7622e-08
1.14444e-05
9.05392e-08
1.14478e-05
9.43178e-08
1.14515e-05
9.54056e-08
1.1456e-05
9.52526e-08
1.14617e-05
9.47605e-08
9.32731e-08
1.14681e-05
1.20692e-05
1.07801e-08
1.20643e-05
2.39905e-08
1.20582e-05
-4.76281e-08
1.20556e-05
2.58213e-08
1.20402e-05
6.01754e-08
1.20236e-05
1.0796e-08
1.20185e-05
3.02869e-08
1.20121e-05
7.83446e-08
1.20006e-05
7.82823e-08
1.19936e-05
6.77247e-08
1.19926e-05
7.63304e-08
1.19914e-05
8.70459e-08
1.19893e-05
8.8112e-08
1.19889e-05
8.79824e-08
1.19907e-05
8.87793e-08
1.19944e-05
9.0597e-08
1.19986e-05
9.1205e-08
1.20035e-05
9.03992e-08
1.20092e-05
8.90057e-08
8.68146e-08
1.20157e-05
1.26455e-05
7.91432e-09
1.26395e-05
2.99629e-08
1.26313e-05
-3.94113e-08
1.26291e-05
2.7982e-08
1.26146e-05
7.47136e-08
1.25964e-05
2.8981e-08
1.25905e-05
3.61819e-08
1.25855e-05
8.33606e-08
1.25744e-05
8.93128e-08
1.2566e-05
7.61435e-08
1.2564e-05
7.83572e-08
1.25634e-05
8.7611e-08
1.2562e-05
8.95193e-08
1.25618e-05
8.82115e-08
1.25633e-05
8.7319e-08
1.25671e-05
8.67577e-08
1.25717e-05
8.65681e-08
1.25769e-05
8.51972e-08
1.25828e-05
8.30962e-08
8.02777e-08
1.25894e-05
1.32492e-05
5.69334e-09
1.32427e-05
3.63912e-08
1.32317e-05
-2.83804e-08
1.32296e-05
3.00742e-08
1.32166e-05
8.77138e-08
1.31972e-05
4.8429e-08
1.31896e-05
4.3687e-08
1.31859e-05
8.71481e-08
1.31758e-05
9.93785e-08
1.31663e-05
8.55962e-08
1.31629e-05
8.17589e-08
1.31626e-05
8.7952e-08
1.31619e-05
9.01946e-08
1.31619e-05
8.82416e-08
1.31634e-05
8.58162e-08
1.31671e-05
8.30817e-08
1.31721e-05
8.15848e-08
1.31776e-05
7.96674e-08
1.31837e-05
7.69425e-08
7.35925e-08
1.31904e-05
1.38816e-05
4.29418e-09
1.38749e-05
4.3051e-08
1.38613e-05
-1.47347e-08
1.38585e-05
3.28267e-08
1.38475e-05
9.87324e-08
1.38274e-05
6.8541e-08
1.38176e-05
5.35014e-08
1.38144e-05
9.03045e-08
1.38057e-05
1.08033e-07
1.37957e-05
9.56661e-08
1.37908e-05
8.65909e-08
1.37902e-05
8.85868e-08
1.37902e-05
9.02349e-08
1.37904e-05
8.7989e-08
1.37922e-05
8.40521e-08
1.37956e-05
7.96351e-08
1.38009e-05
7.63192e-08
1.38067e-05
7.39183e-08
1.38131e-05
7.05182e-08
6.66022e-08
1.38201e-05
1.45441e-05
3.85393e-09
1.45374e-05
4.97212e-08
1.45217e-05
1.02402e-09
1.45174e-05
3.71011e-08
1.45084e-05
1.07702e-07
1.44884e-05
8.85805e-08
1.4476e-05
6.59369e-08
1.44725e-05
9.37637e-08
1.44654e-05
1.15106e-07
1.44552e-05
1.05873e-07
1.44491e-05
9.27362e-08
1.44477e-05
8.99858e-08
1.4448e-05
8.9891e-08
1.44486e-05
8.73677e-08
1.44506e-05
8.20598e-08
1.44541e-05
7.61906e-08
1.44595e-05
7.09312e-08
1.44655e-05
6.78635e-08
1.4472e-05
6.39904e-08
5.90387e-08
1.44796e-05
1.52383e-05
4.45868e-09
1.52322e-05
5.58268e-08
1.52142e-05
1.90157e-08
1.52079e-05
4.33595e-08
1.52007e-05
1.1494e-07
1.51814e-05
1.07862e-07
1.51665e-05
8.08084e-08
1.51618e-05
9.85071e-08
1.5156e-05
1.20896e-07
1.51462e-05
1.15653e-07
1.51389e-05
1.00019e-07
1.51365e-05
9.24161e-08
1.51368e-05
8.95902e-08
1.51378e-05
8.63582e-08
1.51399e-05
7.9932e-08
1.51436e-05
7.2498e-08
1.51488e-05
6.57296e-08
1.51555e-05
6.1193e-08
1.51623e-05
5.72435e-08
5.12119e-08
1.51701e-05
1.59656e-05
6.14985e-09
1.59598e-05
6.16857e-08
1.59408e-05
3.80286e-08
1.59318e-05
5.22944e-08
1.59256e-05
1.21207e-07
1.59077e-05
1.25738e-07
1.58908e-05
9.76484e-08
1.58841e-05
1.05302e-07
1.58788e-05
1.26106e-07
1.58699e-05
1.24625e-07
1.58618e-05
1.08137e-07
1.58582e-05
9.59944e-08
1.5858e-05
8.97966e-08
1.58592e-05
8.50992e-08
1.58615e-05
7.7666e-08
1.58654e-05
6.86407e-08
1.58706e-05
6.05079e-08
1.58775e-05
5.42991e-08
1.58855e-05
4.92093e-08
4.42048e-08
1.58925e-05
1.67279e-05
8.84854e-09
1.6722e-05
6.75774e-08
1.67028e-05
5.721e-08
1.6691e-05
6.41582e-08
1.66848e-05
1.27364e-07
1.66686e-05
1.41991e-07
1.66504e-05
1.158e-07
1.66411e-05
1.14595e-07
1.66356e-05
1.3158e-07
1.66275e-05
1.32783e-07
1.66189e-05
1.16725e-07
1.66141e-05
1.00777e-07
1.66131e-05
9.08296e-08
1.66142e-05
8.39726e-08
1.66166e-05
7.52579e-08
1.66206e-05
6.46985e-08
1.6626e-05
5.50231e-08
1.66332e-05
4.71364e-08
1.66415e-05
4.09388e-08
3.60793e-08
1.66496e-05
1.75268e-05
1.24214e-08
1.75213e-05
7.30771e-08
1.75018e-05
7.66982e-08
1.74871e-05
7.88301e-08
1.74802e-05
1.34302e-07
1.74655e-05
1.56679e-07
1.74466e-05
1.34704e-07
1.74347e-05
1.26463e-07
1.74282e-05
1.38133e-07
1.74205e-05
1.40464e-07
1.74117e-05
1.25528e-07
1.74057e-05
1.06751e-07
1.74037e-05
9.28886e-08
1.74042e-05
8.34643e-08
1.74066e-05
7.27941e-08
1.74107e-05
6.06381e-08
1.74165e-05
4.9242e-08
1.74239e-05
3.97271e-08
1.74325e-05
3.23227e-08
2.67088e-08
1.74419e-05
1.8364e-05
1.67221e-08
1.83582e-05
7.89505e-08
1.83393e-05
9.55566e-08
1.83222e-05
9.5952e-08
1.83136e-05
1.42875e-07
1.83002e-05
1.70125e-07
1.8281e-05
1.539e-07
1.82667e-05
1.40774e-07
1.82583e-05
1.4646e-07
1.82505e-05
1.48269e-07
1.82415e-05
1.34533e-07
1.82344e-05
1.13852e-07
1.82311e-05
9.61822e-08
1.82307e-05
8.39081e-08
1.8233e-05
7.05291e-08
1.82371e-05
5.64818e-08
1.82431e-05
4.32132e-08
1.8251e-05
3.19172e-08
1.82602e-05
2.30751e-08
1.64244e-08
1.82705e-05
1.92415e-05
2.15847e-08
1.92351e-05
8.54077e-08
1.92171e-05
1.13558e-07
1.9198e-05
1.15068e-07
1.91873e-05
1.53557e-07
1.91743e-05
1.83099e-07
1.91552e-05
1.73039e-07
1.91387e-05
1.57236e-07
1.91281e-05
1.57057e-07
1.91194e-05
1.56946e-07
1.91099e-05
1.44009e-07
1.91017e-05