/*--------------------------------*- C++ -*----------------------------------*\
| =========                 |                                                 |
| \\      /  F ield         | OpenFOAM: The Open Source CFD Toolbox           |
|  \\    /   O peration     | Version:  v2012                                 |
|   \\  /    A nd           | Website:  www.openfoam.com                      |
|    \\/     M anipulation  |                                                 |
\*---------------------------------------------------------------------------*/
FoamFile
{
    version     2.0;
    format      ascii;
    class       volVectorField;
    location    "1.3";
    object      U;
}
// * * * * * * * * * * * * * * * * * * * * * * * * * * * * * * * * * * * * * //

dimensions      [0 1 -1 0 0 0 0];


internalField   nonuniform List<vector> 
17600
(
(0.83447 0.00223577 0)
(1.16628 -0.00107788 0)
(0.833701 -0.00157724 0)
(1.15054 0.00198778 0)
(0.846356 -0.00125965 0)
(1.13842 -0.000959716 0)
(0.851289 -0.00110967 0)
(1.13303 -3.61992e-05 0)
(0.861617 0.000450587 0)
(1.13023 0.000448395 0)
(0.869642 0.00144295 0)
(1.12695 0.000802102 0)
(0.874133 0.00222798 0)
(1.12208 0.000864883 0)
(0.87407 0.00248924 0)
(1.11785 0.000646411 0)
(0.8681 0.00273092 0)
(1.11388 0.000549022 0)
(0.854961 0.00360335 0)
(1.10941 0.0008024 0)
(0.844113 0.00214904 0)
(1.15301 -0.000897124 0)
(0.845673 -0.00164735 0)
(1.13687 0.00205327 0)
(0.8626 -0.00134034 0)
(1.12343 -0.000801421 0)
(0.86953 -0.00127086 0)
(1.11562 8.29972e-05 0)
(0.883167 0.000253115 0)
(1.10877 0.000567471 0)
(0.896591 0.00126536 0)
(1.09913 0.000953381 0)
(0.909496 0.00209039 0)
(1.08435 0.00105468 0)
(0.922658 0.00244827 0)
(1.06462 0.000832047 0)
(0.937329 0.00304561 0)
(1.03631 0.00048627 0)
(0.955735 0.00507569 0)
(0.994055 3.10037e-05 0)
(0.863152 0.00208457 0)
(1.12928 -0.000725935 0)
(0.868934 -0.00170147 0)
(1.11103 0.00207906 0)
(0.890835 -0.00139041 0)
(1.09632 -0.000691644 0)
(0.901039 -0.00137612 0)
(1.08484 0.000109747 0)
(0.918622 0.000145245 0)
(1.07352 0.000563909 0)
(0.936891 0.00123238 0)
(1.05921 0.000911519 0)
(0.954296 0.0021936 0)
(1.04102 0.000946845 0)
(0.969837 0.00272883 0)
(1.02158 0.00065854 0)
(0.981592 0.00351557 0)
(1.00167 0.000352977 0)
(0.98695 0.00555835 0)
(0.983887 0.00105325 0)
(0.888817 0.00207707 0)
(1.09955 -0.000634618 0)
(0.899353 -0.00168665 0)
(1.07875 0.00201088 0)
(0.923709 -0.00137522 0)
(1.06439 -0.00068551 0)
(0.935378 -0.00135797 0)
(1.05099 1.21653e-05 0)
(0.953092 0.000184916 0)
(1.03942 0.000408116 0)
(0.970247 0.00135555 0)
(1.02758 0.000721701 0)
(0.983781 0.00241385 0)
(1.0156 0.000744155 0)
(0.992451 0.00302612 0)
(1.00571 0.000510127 0)
(0.995128 0.00384211 0)
(0.997188 0.000390852 0)
(0.991599 0.00578327 0)
(0.989319 0.00217719 0)
(0.916861 0.00211311 0)
(1.0693 -0.000617079 0)
(0.930607 -0.00160633 0)
(1.04766 0.00187537 0)
(0.953405 -0.00131759 0)
(1.0363 -0.000739705 0)
(0.963215 -0.00126766 0)
(1.02426 -0.00013442 0)
(0.976741 0.000268721 0)
(1.01648 0.000226633 0)
(0.988769 0.0014726 0)
(1.01073 0.000562252 0)
(0.996281 0.00255004 0)
(1.00593 0.000636035 0)
(0.999447 0.00317646 0)
(1.00231 0.000489452 0)
(0.998391 0.00401348 0)
(0.997732 0.000537943 0)
(0.993627 0.00596043 0)
(0.991287 0.00321574 0)
(0.942916 0.00217419 0)
(1.04361 -0.000650837 0)
(0.95714 -0.00148636 0)
(1.02383 0.00172071 0)
(0.975246 -0.00125564 0)
(1.01732 -0.000802919 0)
(0.981143 -0.00116446 0)
(1.00853 -0.000256755 0)
(0.989066 0.000327055 0)
(1.00506 9.18938e-05 0)
(0.996161 0.0015233 0)
(1.00401 0.000468641 0)
(0.999924 0.00259497 0)
(1.00304 0.00059106 0)
(1.00112 0.00323732 0)
(1.00176 0.000517021 0)
(0.999591 0.00410831 0)
(0.998297 0.000741802 0)
(0.995213 0.00609265 0)
(0.992618 0.00416015 0)
(0.963863 0.00223999 0)
(1.02527 -0.000708599 0)
(0.976244 -0.00135839 0)
(1.00937 0.00158226 0)
(0.988798 -0.00121468 0)
(1.00753 -0.000847125 0)
(0.990915 -0.00107407 0)
(1.00175 -0.000332732 0)
(0.994393 0.000354638 0)
(1.00077 1.23418e-06 0)
(0.998438 0.00153088 0)
(1.0018 0.000406257 0)
(1.00067 0.00259899 0)
(1.00221 0.000558851 0)
(1.00156 0.00326089 0)
(1.00179 0.000561192 0)
(1.00028 0.00414558 0)
(0.998969 0.00101492 0)
(0.996372 0.00613783 0)
(0.99407 0.00505381 0)
(0.978584 0.00229227 0)
(1.01424 -0.000767659 0)
(0.988138 -0.00124543 0)
(1.00264 0.00147265 0)
(0.996195 -0.00119799 0)
(1.00388 -0.000869711 0)
(0.99588 -0.000996969 0)
(0.999939 -0.000373264 0)
(0.996757 0.000370002 0)
(0.999699 -6.46008e-05 0)
(0.999215 0.00152425 0)
(1.00122 0.000353124 0)
(1.00089 0.0025879 0)
(1.00203 0.000527624 0)
(1.00182 0.00326087 0)
(1.00203 0.000621773 0)
(1.00083 0.00412982 0)
(0.999697 0.00135014 0)
(0.997403 0.00610226 0)
(0.99546 0.00589303 0)
(0.987748 0.0023216 0)
(1.00855 -0.000816342 0)
(0.99468 -0.00115569 0)
(1.00046 0.00138699 0)
(0.999941 -0.00119582 0)
(1.00307 -0.000880302 0)
(0.998528 -0.00092713 0)
(1.0001 -0.000394925 0)
(0.998213 0.000386854 0)
(0.999816 -0.000116472 0)
(0.999813 0.0015168 0)
(1.00126 0.000305141 0)
(1.00117 0.00256853 0)
(1.00213 0.000501685 0)
(1.00213 0.00323717 0)
(1.00236 0.000705532 0)
(1.00137 0.004065 0)
(1.00038 0.00173133 0)
(0.998381 0.00601539 0)
(0.996721 0.00665662 0)
(0.992938 0.0023284 0)
(1.0059 -0.000852531 0)
(0.997958 -0.0010866 0)
(1.00019 0.00131479 0)
(1.00179 -0.00119727 0)
(1.00306 -0.000888249 0)
(1.00007 -0.000861388 0)
(1.00074 -0.000409896 0)
(0.999392 0.00040891 0)
(1.00031 -0.00015921 0)
(1.0005 0.00151205 0)
(1.00157 0.000263847 0)
(1.00161 0.00254139 0)
(1.0024 0.000488268 0)
(1.00251 0.00318602 0)
(1.00273 0.000819962 0)
(1.00189 0.00395654 0)
(1.001 0.0021437 0)
(0.999271 0.00590945 0)
(0.997839 0.00732113 0)
(0.995747 0.0023185 0)
(1.00462 -0.000878268 0)
(0.999523 -0.00103225 0)
(1.00039 0.00124849 0)
(1.00268 -0.00119536 0)
(1.00304 -0.000898459 0)
(1.00099 -0.000799629 0)
(1.0013 -0.000425485 0)
(1.00037 0.000433786 0)
(1.00089 -0.000195237 0)
(1.00122 0.00150868 0)
(1.00202 0.000231203 0)
(1.00213 0.00250451 0)
(1.00277 0.000494157 0)
(1.00294 0.00310381 0)
(1.00312 0.000969104 0)
(1.00238 0.00381346 0)
(1.00156 0.00257159 0)
(1.00006 0.00581669 0)
(0.998811 0.00786871 0)
(0.997291 0.00229806 0)
(1.0039 -0.000896039 0)
(1.00027 -0.000987655 0)
(1.00056 0.00118446 0)
(1.00308 -0.00118733 0)
(1.00287 -0.00091222 0)
(1.00148 -0.000743002 0)
(1.00167 -0.00044581 0)
(1.00112 0.000457376 0)
(1.00143 -0.000228014 0)
(1.0019 0.00150236 0)
(1.00253 0.000208828 0)
(1.00267 0.00245418 0)
(1.0032 0.000524451 0)
(1.00338 0.0029906 0)
(1.00352 0.00115069 0)
(1.00283 0.00365032 0)
(1.00204 0.00299407 0)
(1.00074 0.00576569 0)
(0.999645 0.00829277 0)
(0.998183 0.00227122 0)
(1.00342 -0.000907734 0)
(1.00065 -0.000949636 0)
(1.00065 0.00112123 0)
(1.00324 -0.00117317 0)
(1.00265 -0.000928969 0)
(1.00172 -0.000692419 0)
(1.00189 -0.00047205 0)
(1.00165 0.000475964 0)
(1.00188 -0.000258237 0)
(1.00246 0.00148836 0)
(1.003 0.000198514 0)
(1.00315 0.00238571 0)
(1.00361 0.000581678 0)
(1.00378 0.00285071 0)
(1.00387 0.00135704 0)
(1.00323 0.00348783 0)
(1.00246 0.00338811 0)
(1.00132 0.00577529 0)
(1.00035 0.008601 0)
(0.998711 0.00224011 0)
(1.0031 -0.000914697 0)
(1.00086 -0.000916532 0)
(1.00069 0.0010586 0)
(1.0033 -0.00115406 0)
(1.00245 -0.00094762 0)
(1.00182 -0.000647482 0)
(1.00202 -0.000502906 0)
(1.00198 0.000486949 0)
(1.0022 -0.00028294 0)
(1.00286 0.00146378 0)
(1.00338 0.000202046 0)
(1.00354 0.00229593 0)
(1.00395 0.00066413 0)
(1.0041 0.0026912 0)
(1.00417 0.00157604 0)
(1.00356 0.00334874 0)
(1.00281 0.00373535 0)
(1.00181 0.00584968 0)
(1.00095 0.00881334 0)
(0.999014 0.00220571 0)
(1.0029 -0.000917948 0)
(1.00097 -0.000887321 0)
(1.00071 0.000996602 0)
(1.0033 -0.00113183 0)
(1.00232 -0.000966896 0)
(1.00185 -0.000607667 0)
(1.00209 -0.000536506 0)
(1.00218 0.000490173 0)
(1.00242 -0.000304516 0)
(1.00314 0.00142463 0)
(1.00365 0.000220849 0)
(1.00381 0.00218381 0)
(1.0042 0.000767069 0)
(1.00435 0.00252086 0)
(1.00438 0.00179301 0)
(1.00383 0.00325032 0)
(1.0031 0.00402882 0)
(1.00222 0.0059804 0)
(1.00146 0.00895557 0)
(0.999178 0.0021685 0)
(1.00278 -0.000918216 0)
(1.00104 -0.000861255 0)
(1.00072 0.000935186 0)
(1.00329 -0.00110843 0)
(1.00225 -0.000985396 0)
(1.00186 -0.000573279 0)
(1.00214 -0.000569835 0)
(1.00229 0.000483879 0)
(1.00256 -0.000319993 0)
(1.0033 0.00136787 0)
(1.00383 0.000256795 0)
(1.00398 0.00205008 0)
(1.00435 0.000884449 0)
(1.00452 0.00235075 0)
(1.00454 0.00199364 0)
(1.00403 0.00320036 0)
(1.00333 0.00427408 0)
(1.00257 0.00615215 0)
(1.00191 0.00905337 0)
(0.999263 0.00212868 0)
(1.0027 -0.000915801 0)
(1.00108 -0.000838159 0)
(1.00072 0.000874886 0)
(1.00326 -0.00108573 0)
(1.00222 -0.00100229 0)
(1.00187 -0.000543649 0)
(1.00217 -0.000599471 0)
(1.00235 0.000465042 0)
(1.00265 -0.000323059 0)
(1.0034 0.00129253 0)
(1.00394 0.000309197 0)
(1.00409 0.00189947 0)
(1.00445 0.0010064 0)
(1.00464 0.0021948 0)
(1.00464 0.00216529 0)
(1.0042 0.00319874 0)
(1.00354 0.00448099 0)
(1.00289 0.00634651 0)
(1.00231 0.00912854 0)
(0.999308 0.00208634 0)
(1.00263 -0.000910614 0)
(1.00111 -0.000818473 0)
(1.00072 0.000816715 0)
(1.00324 -0.0010656 0)
(1.00222 -0.00101595 0)
(1.00188 -0.000519882 0)
(1.0022 -0.000622576 0)
(1.00238 0.000433377 0)
(1.00271 -0.000313508 0)
(1.00347 0.00119856 0)
(1.004 0.00037305 0)
(1.00416 0.00174113 0)
(1.00451 0.00111957 0)
(1.00473 0.0020656 0)
(1.00473 0.00230182 0)
(1.00435 0.00323936 0)
(1.00374 0.00465779 0)
(1.00318 0.00654639 0)
(1.00268 0.00919647 0)
(0.999335 0.00204152 0)
(1.00258 -0.000902418 0)
(1.00114 -0.000802765 0)
(1.00071 0.000761658 0)
(1.00321 -0.00105012 0)
(1.00222 -0.00102414 0)
(1.00189 -0.000504206 0)
(1.00223 -0.000636554 0)
(1.00241 0.000388791 0)
(1.00275 -0.000291873 0)
(1.00352 0.00108889 0)
(1.00405 0.000441831 0)
(1.00421 0.00158564 0)
(1.00454 0.00121271 0)
(1.0048 0.00196704 0)
(1.0048 0.00240684 0)
(1.00448 0.00331171 0)
(1.00394 0.00481247 0)
(1.00346 0.00673966 0)
(1.00304 0.00926668 0)
(0.999354 0.00199402 0)
(1.00253 -0.000890336 0)
(1.00117 -0.000792556 0)
(1.00071 0.000711622 0)
(1.00318 -0.00104176 0)
(1.00224 -0.00102503 0)
(1.00191 -0.000498684 0)
(1.00226 -0.000641127 0)
(1.00244 0.000331143 0)
(1.00279 -0.000262309 0)
(1.00356 0.000967688 0)
(1.00408 0.000507743 0)
(1.00426 0.00144168 0)
(1.00458 0.00128127 0)
(1.00486 0.001895 0)
(1.00488 0.00248799 0)
(1.00462 0.00340367 0)
(1.00415 0.00495157 0)
(1.00374 0.00691761 0)
(1.00339 0.0093429 0)
(0.999369 0.00194368 0)
(1.00248 -0.000873411 0)
(1.00119 -0.000789206 0)
(1.00069 0.000667552 0)
(1.00315 -0.00104205 0)
(1.00225 -0.00101709 0)
(1.00192 -0.000505222 0)
(1.0023 -0.000635953 0)
(1.00246 0.000259854 0)
(1.00283 -0.000222522 0)
(1.0036 0.000843595 0)
(1.00411 0.000561891 0)
(1.0043 0.0013137 0)
(1.00461 0.0013255 0)
(1.00493 0.00184408 0)
(1.00497 0.00255156 0)
(1.00477 0.00350703 0)
(1.00437 0.0050804 0)
(1.00404 0.00707583 0)
(1.00374 0.00942415 0)
(0.999384 0.00189049 0)
(1.00244 -0.000851055 0)
(1.00122 -0.000793435 0)
(1.00068 0.000630336 0)
(1.00312 -0.00105309 0)
(1.00227 -0.000999543 0)
(1.00194 -0.000523047 0)
(1.00233 -0.000622367 0)
(1.00249 0.0001788 0)
(1.00286 -0.000180295 0)
(1.00364 0.00072571 0)
(1.00414 0.000595783 0)
(1.00434 0.00120296 0)
(1.00464 0.00134535 0)
(1.005 0.00180928 0)
(1.00506 0.00259833 0)
(1.00492 0.00361676 0)
(1.00459 0.00520324 0)
(1.00433 0.00721427 0)
(1.00408 0.0095069 0)
(0.999397 0.00183394 0)
(1.00239 -0.000821124 0)
(1.00124 -0.000808915 0)
(1.00067 0.000603511 0)
(1.00309 -0.00107677 0)
(1.00228 -0.00097449 0)
(1.00196 -0.000549781 0)
(1.00236 -0.000602521 0)
(1.00251 9.37337e-05 0)
(1.00289 -0.000143593 0)
(1.00367 0.000621374 0)
(1.00417 0.000606562 0)
(1.00438 0.00110972 0)
(1.00467 0.00134471 0)
(1.00507 0.00178767 0)
(1.00517 0.0026291 0)
(1.00508 0.00372557 0)
(1.00484 0.00532184 0)
(1.00464 0.0073323 0)
(1.00442 0.00958422 0)
(0.99941 0.00177403 0)
(1.00234 -0.000782829 0)
(1.00127 -0.000836278 0)
(1.00066 0.000586241 0)
(1.00306 -0.00111019 0)
(1.0023 -0.00094339 0)
(1.00198 -0.000586921 0)
(1.00239 -0.000578911 0)
(1.00254 1.32666e-05 0)
(1.00292 -0.000115199 0)
(1.00371 0.000532508 0)
(1.0042 0.000597414 0)
(1.00442 0.00102913 0)
(1.00472 0.00133358 0)
(1.00514 0.00177807 0)
(1.00529 0.00265457 0)
(1.00526 0.00382581 0)
(1.00509 0.00543756 0)
(1.00497 0.00742714 0)
(1.00478 0.00964609 0)
(0.999423 0.00171074 0)
(1.00228 -0.00073522 0)
(1.00129 -0.000876852 0)
(1.00065 0.000578954 0)
(1.00303 -0.00115706 0)
(1.00232 -0.000901952 0)
(1.002 -0.000630756 0)
(1.00242 -0.000558653 0)
(1.00257 -5.69339e-05 0)
(1.00295 -0.000108292 0)
(1.00375 0.000451989 0)
(1.00424 0.000571253 0)
(1.00446 0.000951021 0)
(1.00476 0.00131745 0)
(1.00522 0.00177719 0)
(1.00542 0.0026865 0)
(1.00545 0.00391713 0)
(1.00535 0.00554982 0)
(1.0053 0.00750065 0)
(1.00514 0.00968293 0)
(0.999436 0.00164381 0)
(1.00223 -0.000676455 0)
(1.00132 -0.000932229 0)
(1.00064 0.000581224 0)
(1.00299 -0.00121679 0)
(1.00234 -0.000855889 0)
(1.00201 -0.00067196 0)
(1.00245 -0.000548853 0)
(1.00259 -0.000113586 0)
(1.00299 -0.000117679 0)
(1.00379 0.000380155 0)
(1.00427 0.000536303 0)
(1.00451 0.000873751 0)
(1.00481 0.00129691 0)
(1.0053 0.00178621 0)
(1.00556 0.00273073 0)
(1.00565 0.00401184 0)
(1.00562 0.00565934 0)
(1.00563 0.00756452 0)
(1.00551 0.00969097 0)
(0.99945 0.00157315 0)
(1.00217 -0.000605906 0)
(1.00134 -0.00100192 0)
(1.00062 0.000591537 0)
(1.00296 -0.00128061 0)
(1.00236 -0.0008168 0)
(1.00203 -0.000707229 0)
(1.00247 -0.000556458 0)
(1.00262 -0.000157675 0)
(1.00302 -0.000143426 0)
(1.00383 0.000310795 0)
(1.0043 0.000505704 0)
(1.00455 0.000803529 0)
(1.00487 0.00127943 0)
(1.0054 0.00181696 0)
(1.00572 0.00279932 0)
(1.00587 0.00412333 0)
(1.0059 0.00577479 0)
(1.00598 0.00762883 0)
(1.00589 0.00967886 0)
(0.999464 0.00149941 0)
(1.00211 -0.000523847 0)
(1.00137 -0.00108526 0)
(1.00061 0.000608284 0)
(1.00292 -0.00134567 0)
(1.00238 -0.000792454 0)
(1.00204 -0.000724268 0)
(1.0025 -0.000587496 0)
(1.00264 -0.000188167 0)
(1.00305 -0.000182468 0)
(1.00387 0.000233549 0)
(1.00433 0.000481967 0)
(1.0046 0.000746992 0)
(1.00493 0.00127722 0)
(1.0055 0.00188557 0)
(1.00588 0.00290368 0)
(1.0061 0.00425189 0)
(1.00619 0.00589955 0)
(1.00632 0.00769705 0)
(1.00627 0.00965958 0)
(0.999479 0.00142244 0)
(1.00205 -0.000429645 0)
(1.00139 -0.00117689 0)
(1.00059 0.000621929 0)
(1.00288 -0.00140482 0)
(1.0024 -0.000786586 0)
(1.00206 -0.000712527 0)
(1.00253 -0.000637666 0)
(1.00267 -0.000204283 0)
(1.00307 -0.000217515 0)
(1.0039 0.00015542 0)
(1.00436 0.000467394 0)
(1.00465 0.000729472 0)
(1.00501 0.00131085 0)
(1.00562 0.00200235 0)
(1.00606 0.00304158 0)
(1.00634 0.00438506 0)
(1.00649 0.00602369 0)
(1.00667 0.00776741 0)
(1.00666 0.00964098 0)
(0.999494 0.00134171 0)
(1.00198 -0.000324704 0)
(1.00141 -0.0012737 0)
(1.00058 0.000629691 0)
(1.00284 -0.00144729 0)
(1.00243 -0.000805075 0)
(1.00206 -0.000679502 0)
(1.00256 -0.000702816 0)
(1.00269 -0.000222272 0)
(1.0031 -0.000241822 0)
(1.00395 8.0688e-05 0)
(1.0044 0.000472297 0)
(1.0047 0.000770229 0)
(1.0051 0.0013915 0)
(1.00574 0.00215609 0)
(1.00624 0.00319373 0)
(1.00659 0.00450676 0)
(1.00679 0.00612606 0)
(1.00702 0.00782828 0)
(1.00704 0.00961797 0)
(0.99951 0.00125925 0)
(1.0019 -0.000215492 0)
(1.00143 -0.00136906 0)
(1.00056 0.000619866 0)
(1.00279 -0.00146548 0)
(1.00246 -0.000858996 0)
(1.00207 -0.000628972 0)
(1.00258 -0.000774777 0)
(1.00272 -0.000243558 0)
(1.00311 -0.000243717 0)
(1.00399 2.76102e-05 0)
(1.00444 0.000499087 0)
(1.00476 0.000862444 0)
(1.00519 0.0015049 0)
(1.00587 0.00231982 0)
(1.00643 0.00333966 0)
(1.00684 0.00460566 0)
(1.0071 0.0061863 0)
(1.00737 0.0078577 0)
(1.00741 0.00956964 0)
(0.999526 0.0011767 0)
(1.00182 -0.000106132 0)
(1.00144 -0.00145682 0)
(1.00054 0.000584813 0)
(1.00273 -0.00145747 0)
(1.00249 -0.000938478 0)
(1.00207 -0.00057053 0)
(1.0026 -0.000830544 0)
(1.00275 -0.000270949 0)
(1.00313 -0.000202302 0)
(1.00403 1.88728e-05 0)
(1.0045 0.000557043 0)
(1.00483 0.000991283 0)
(1.0053 0.00163494 0)
(1.00601 0.0024763 0)
(1.00661 0.00348082 0)
(1.00709 0.00468618 0)
(1.00741 0.00620638 0)
(1.00773 0.00784138 0)
(1.00778 0.00948325 0)
(0.999542 0.00109448 0)
(1.00174 -8.36022e-07 0)
(1.00145 -0.00152386 0)
(1.00053 0.000520393 0)
(1.00268 -0.00142449 0)
(1.00252 -0.00103079 0)
(1.00207 -0.000517995 0)
(1.00261 -0.000857181 0)
(1.00278 -0.000304279 0)
(1.00315 -0.000121958 0)
(1.00408 5.37313e-05 0)
(1.00456 0.000643593 0)
(1.0049 0.00113372 0)
(1.0054 0.00176443 0)
(1.00615 0.00261217 0)
(1.00679 0.00361624 0)
(1.00734 0.00475913 0)
(1.00773 0.00619769 0)
(1.00808 0.00777908 0)
(1.00814 0.00935763 0)
(0.999558 0.00101218 0)
(1.00165 9.18941e-05 0)
(1.00146 -0.00155558 0)
(1.00051 0.000423782 0)
(1.00261 -0.00137884 0)
(1.00255 -0.00113024 0)
(1.00207 -0.000474544 0)
(1.00262 -0.000854809 0)
(1.00282 -0.000323263 0)
(1.00316 -2.3258e-05 0)
(1.00412 0.000126653 0)
(1.00463 0.00073763 0)
(1.00498 0.0012747 0)
(1.00551 0.00187913 0)
(1.0063 0.00271305 0)
(1.00698 0.00372882 0)
(1.00758 0.00482773 0)
(1.00804 0.00617138 0)
(1.00844 0.00767802 0)
(1.00851 0.00919422 0)
(0.999575 0.000932971 0)
(1.00155 0.00017288 0)
(1.00146 -0.00155524 0)
(1.0005 0.000306984 0)
(1.00254 -0.00133026 0)
(1.00258 -0.00122255 0)
(1.00208 -0.00044211 0)
(1.00262 -0.000822304 0)
(1.00286 -0.000319091 0)
(1.00319 8.93997e-05 0)
(1.00416 0.000228855 0)
(1.0047 0.000828574 0)
(1.00505 0.00141111 0)
(1.00561 0.00197938 0)
(1.00645 0.00277886 0)
(1.00717 0.00380726 0)
(1.00781 0.00489172 0)
(1.00834 0.00614318 0)
(1.00879 0.00755408 0)
(1.00886 0.00899991 0)
(0.999592 0.000858261 0)
(1.00146 0.000245064 0)
(1.00145 -0.0015202 0)
(1.00049 0.00017665 0)
(1.00247 -0.00128635 0)
(1.00261 -0.00129806 0)
(1.00209 -0.000420577 0)
(1.00262 -0.000763473 0)
(1.00291 -0.000289504 0)
(1.00321 0.000213023 0)
(1.0042 0.00034873 0)
(1.00478 0.000916171 0)
(1.00513 0.00154134 0)
(1.00571 0.00207784 0)
(1.0066 0.00282349 0)
(1.00736 0.00385252 0)
(1.00804 0.00494331 0)
(1.00862 0.00611947 0)
(1.00913 0.00741957 0)
(1.00922 0.00878021 0)
(0.999609 0.000787016 0)
(1.00136 0.000298619 0)
(1.00143 -0.00145416 0)
(1.00048 5.18054e-05 0)
(1.0024 -0.00125493 0)
(1.00264 -0.00135567 0)
(1.00211 -0.000401306 0)
(1.00262 -0.000677932 0)
(1.00296 -0.000244009 0)
(1.00324 0.00033716 0)
(1.00424 0.000472644 0)
(1.00485 0.000997552 0)
(1.0052 0.00165825 0)
(1.0058 0.00218231 0)
(1.00675 0.0028606 0)
(1.00756 0.00386901 0)
(1.00828 0.00497043 0)
(1.0089 0.00609523 0)
(1.00946 0.00728233 0)
(1.00956 0.0085419 0)
(0.999628 0.000719805 0)
(1.00126 0.000329427 0)
(1.0014 -0.00137031 0)
(1.00047 -5.2865e-05 0)
(1.00233 -0.00122666 0)
(1.00268 -0.0013973 0)
(1.00213 -0.000374356 0)
(1.00262 -0.000571097 0)
(1.00301 -0.0001877 0)
(1.00328 0.000461179 0)
(1.00427 0.000595298 0)
(1.00493 0.00106425 0)
(1.00529 0.00175508 0)
(1.00588 0.00229125 0)
(1.0069 0.0029015 0)
(1.00777 0.00386417 0)
(1.00852 0.00496808 0)
(1.00917 0.00606347 0)
(1.00976 0.00714934 0)
(1.00989 0.00829589 0)
(0.999646 0.000658194 0)
(1.00117 0.00033559 0)
(1.00137 -0.00127349 0)
(1.00045 -0.000126337 0)
(1.00226 -0.00118775 0)
(1.00271 -0.00141907 0)
(1.00217 -0.000341104 0)
(1.00262 -0.000452043 0)
(1.00307 -0.000122436 0)
(1.00332 0.000585802 0)
(1.00429 0.00072188 0)
(1.005 0.00111875 0)
(1.00538 0.00183447 0)
(1.00597 0.00240563 0)
(1.00703 0.00295567 0)
(1.00798 0.00384665 0)
(1.00877 0.00493554 0)
(1.00943 0.00601472 0)
(1.01005 0.00702024 0)
(1.0102 0.00805054 0)
(0.999666 0.000602008 0)
(1.00108 0.000321698 0)
(1.00134 -0.00116922 0)
(1.00043 -0.000165904 0)
(1.00218 -0.00113368 0)
(1.00275 -0.00141998 0)
(1.00221 -0.000305373 0)
(1.00263 -0.0003238 0)
(1.00313 -5.32825e-05 0)
(1.00337 0.000699952 0)
(1.00431 0.000853724 0)
(1.00508 0.00116652 0)
(1.00548 0.00189357 0)
(1.00605 0.00252245 0)
(1.00716 0.00302828 0)
(1.00819 0.00382719 0)
(1.00902 0.00487618 0)
(1.00969 0.00594199 0)
(1.01032 0.00689004 0)
(1.0105 0.00781243 0)
(0.999686 0.000550982 0)
(1.00099 0.000293482 0)
(1.00131 -0.0010695 0)
(1.00042 -0.000173908 0)
(1.00211 -0.0010629 0)
(1.00279 -0.00139892 0)
(1.00227 -0.000264447 0)
(1.00263 -0.00019019 0)
(1.00319 2.00086e-05 0)
(1.00342 0.00079936 0)
(1.00433 0.00099454 0)
(1.00515 0.00121914 0)
(1.00559 0.00192576 0)
(1.00615 0.00262514 0)
(1.00727 0.00311412 0)
(1.00838 0.00381366 0)
(1.00928 0.00479402 0)
(1.00996 0.00583879 0)
(1.01058 0.00674811 0)
(1.01076 0.00758084 0)
(0.999706 0.000502055 0)
(1.00091 0.000256679 0)
(1.00128 -0.000982322 0)
(1.0004 -0.000152664 0)
(1.00203 -0.000972235 0)
(1.00283 -0.00135105 0)
(1.00234 -0.00021897 0)
(1.00264 -4.98649e-05 0)
(1.00325 9.50517e-05 0)
(1.00349 0.000885118 0)
(1.00434 0.00114582 0)
(1.00521 0.00129056 0)
(1.00571 0.00193603 0)
(1.00625 0.00269539 0)
(1.00738 0.00320288 0)
(1.00856 0.00381229 0)
(1.00953 0.00469732 0)
(1.01023 0.00570224 0)
(1.01084 0.00658279 0)
(1.01101 0.00734751 0)
(0.999727 0.000454458 0)
(1.00084 0.000220417 0)
(1.00125 -0.000911124 0)
(1.0004 -0.000112626 0)
(1.00196 -0.00085668 0)
(1.00287 -0.00128441 0)
(1.00242 -0.000159218 0)
(1.00266 8.91724e-05 0)
(1.00331 0.000160226 0)
(1.00356 0.000946071 0)
(1.00436 0.00129548 0)
(1.00526 0.00138348 0)
(1.00584 0.00193725 0)
(1.00638 0.00272717 0)
(1.00749 0.00328185 0)
(1.00873 0.00382479 0)
(1.00978 0.00459862 0)
(1.0105 0.00553822 0)
(1.01109 0.00638954 0)
(1.01124 0.00710488 0)
(0.999749 0.000409653 0)
(1.00077 0.000188659 0)
(1.00124 -0.000857752 0)
(1.00039 -5.51322e-05 0)
(1.00189 -0.0007137 0)
(1.00292 -0.00119952 0)
(1.00252 -9.03252e-05 0)
(1.00267 0.00023044 0)
(1.00337 0.000227907 0)
(1.00366 0.000983065 0)
(1.00439 0.00143473 0)
(1.0053 0.00149936 0)
(1.00596 0.00194406 0)
(1.00652 0.00272665 0)
(1.0076 0.00333469 0)
(1.00888 0.00384022 0)
(1.01 0.00450333 0)
(1.01077 0.00535489 0)
(1.01134 0.00616774 0)
(1.01146 0.00684586 0)
(0.999771 0.000367071 0)
(1.0007 0.000156856 0)
(1.00123 -0.000819554 0)
(1.0004 1.47471e-05 0)
(1.00182 -0.000547782 0)
(1.00296 -0.00108979 0)
(1.00262 -1.50179e-05 0)
(1.0027 0.000388939 0)
(1.00343 0.000318627 0)
(1.00376 0.00100337 0)
(1.00443 0.00155396 0)
(1.00533 0.0016349 0)
(1.00608 0.00196775 0)
(1.00668 0.00270384 0)
(1.00773 0.00335168 0)
(1.00901 0.00384576 0)
(1.01021 0.00441371 0)
(1.01102 0.00516403 0)
(1.01159 0.00592351 0)
(1.01168 0.00656769 0)
(0.999794 0.00032535 0)
(1.00064 0.000134564 0)
(1.00123 -0.000794449 0)
(1.00042 8.4002e-05 0)
(1.00175 -0.000362798 0)
(1.00301 -0.00095733 0)
(1.00274 7.3491e-05 0)
(1.00272 0.000565634 0)
(1.00348 0.000433508 0)
(1.00388 0.00100736 0)
(1.00448 0.00163843 0)
(1.00535 0.00177656 0)
(1.00618 0.00201424 0)
(1.00684 0.00266871 0)
(1.00787 0.00333225 0)
(1.00914 0.00383262 0)
(1.01039 0.00432941 0)
(1.01126 0.00497653 0)
(1.01184 0.00566667 0)
(1.01189 0.00627156 0)
(0.999817 0.000282158 0)
(1.00058 0.000130822 0)
(1.00124 -0.000777976 0)
(1.00046 0.000148477 0)
(1.00169 -0.000156215 0)
(1.00305 -0.000805828 0)
(1.00287 0.000160961 0)
(1.00276 0.000756056 0)
(1.00351 0.000581152 0)
(1.00399 0.00101444 0)
(1.00457 0.00168637 0)
(1.00538 0.00190836 0)
(1.00627 0.00208225 0)
(1.007 0.0026316 0)
(1.00802 0.00328051 0)
(1.00928 0.00379359 0)
(1.01055 0.00424411 0)
(1.01148 0.00479629 0)
(1.01207 0.00540528 0)
(1.01209 0.00596088 0)
(0.999841 0.000240108 0)
(1.00053 0.000139438 0)
(1.00125 -0.000759219 0)
(1.00051 0.00020241 0)
(1.00164 6.7784e-05 0)
(1.00309 -0.000634403 0)
(1.00301 0.000242016 0)
(1.0028 0.000949628 0)
(1.00353 0.000761991 0)
(1.0041 0.00104188 0)
(1.00467 0.00170499 0)
(1.00542 0.00201842 0)
(1.00634 0.00216534 0)
(1.00714 0.00260344 0)
(1.00819 0.00320562 0)
(1.00941 0.00372489 0)
(1.0107 0.00414829 0)
(1.01167 0.0046201 0)
(1.01228 0.00514357 0)
(1.01229 0.00564001 0)
(0.999865 0.000201625 0)
(1.00048 0.000156547 0)
(1.00127 -0.00072942 0)
(1.00059 0.000248173 0)
(1.00159 0.000296873 0)
(1.00311 -0.000438345 0)
(1.00317 0.000316741 0)
(1.00286 0.00113324 0)
(1.00354 0.000975941 0)
(1.0042 0.00109906 0)
(1.00478 0.00170582 0)
(1.00547 0.00210048 0)
(1.0064 0.00225476 0)
(1.00728 0.0025926 0)
(1.00835 0.00312138 0)
(1.00956 0.00362936 0)
(1.01084 0.00403585 0)
(1.01183 0.00444356 0)
(1.01247 0.00488442 0)
(1.01247 0.00531444 0)
(0.999889 0.000164352 0)
(1.00042 0.000185626 0)
(1.00129 -0.000685144 0)
(1.00068 0.000290984 0)
(1.00156 0.000527446 0)
(1.00313 -0.000216037 0)
(1.00333 0.000386822 0)
(1.00295 0.00129367 0)
(1.00354 0.00122241 0)
(1.00428 0.00119732 0)
(1.00491 0.0017041 0)
(1.00555 0.00215181 0)
(1.00646 0.00233679 0)
(1.00739 0.00259618 0)
(1.0085 0.00303457 0)
(1.0097 0.00350816 0)
(1.01097 0.00389931 0)
(1.01198 0.00425924 0)
(1.01264 0.00462729 0)
(1.01263 0.00498923 0)
(0.999913 0.000128579 0)
(1.00037 0.000233439 0)
(1.00132 -0.000624671 0)
(1.00079 0.00032459 0)
(1.00154 0.000757313 0)
(1.00313 3.42098e-05 0)
(1.00349 0.000454152 0)
(1.00306 0.00141893 0)
(1.00354 0.00148091 0)
(1.00433 0.00134405 0)
(1.00503 0.00171542 0)
(1.00564 0.00217941 0)
(1.00651 0.00240354 0)
(1.00748 0.00261045 0)
(1.00864 0.0029505 0)
(1.00985 0.00336457 0)
(1.0111 0.0037321 0)
(1.01211 0.00405633 0)
(1.01278 0.00436513 0)
(1.01277 0.00466317 0)
(0.999936 9.57909e-05 0)
(1.00033 0.000297578 0)
(1.00134 -0.000538045 0)
(1.00092 0.000346973 0)
(1.00153 0.000979514 0)
(1.00312 0.000303523 0)
(1.00365 0.000524452 0)
(1.00319 0.00150818 0)
(1.00354 0.00172313 0)
(1.00435 0.00153752 0)
(1.00514 0.00175236 0)
(1.00574 0.00219075 0)
(1.00657 0.00244979 0)
(1.00755 0.00262811 0)
(1.00875 0.00287452 0)
(1.00998 0.00320894 0)
(1.01123 0.00353687 0)
(1.01223 0.00382926 0)
(1.01289 0.00409135 0)
(1.01288 0.00433301 0)
(0.999958 6.84132e-05 0)
(1.00028 0.000370268 0)
(1.00135 -0.000420519 0)
(1.00106 0.000364565 0)
(1.00155 0.00118069 0)
(1.00309 0.000596096 0)
(1.00379 0.000621737 0)
(1.00335 0.0015708 0)
(1.00356 0.00193551 0)
(1.00435 0.00176408 0)
(1.00523 0.00182767 0)
(1.00584 0.00219587 0)
(1.00664 0.00247534 0)
(1.0076 0.00264126 0)
(1.00883 0.0028108 0)
(1.01009 0.00305583 0)
(1.01134 0.00332556 0)
(1.01234 0.00358054 0)
(1.01299 0.00380321 0)
(1.01297 0.00399651 0)
(0.999979 4.95595e-05 0)
(1.00024 0.000443461 0)
(1.00134 -0.000269055 0)
(1.0012 0.000386595 0)
(1.00159 0.00134838 0)
(1.00304 0.000911815 0)
(1.0039 0.000765267 0)
(1.00353 0.00161244 0)
(1.0036 0.00211586 0)
(1.00433 0.00200279 0)
(1.00527 0.0019497 0)
(1.00594 0.0022105 0)
(1.00671 0.00248512 0)
(1.00764 0.00264333 0)
(1.00888 0.00275561 0)
(1.01017 0.00290903 0)
(1.01143 0.00310429 0)
(1.01243 0.00330728 0)
(1.01307 0.00348998 0)
(1.01303 0.00364063 0)
(0.999999 3.9514e-05 0)
(1.0002 0.000515356 0)
(1.00133 -8.40301e-05 0)
(1.00135 0.000423639 0)
(1.00165 0.00148368 0)
(1.00298 0.00123093 0)
(1.00397 0.000958578 0)
(1.0037 0.00164651 0)
(1.00367 0.00225917 0)
(1.0043 0.00223432 0)
(1.00529 0.00210999 0)
(1.00601 0.00224632 0)
(1.00677 0.00248316 0)
(1.00767 0.00262949 0)
(1.0089 0.00269991 0)
(1.0102 0.0027678 0)
(1.01149 0.00287881 0)
(1.01249 0.00301303 0)
(1.01312 0.00314623 0)
(1.01307 0.0032553 0)
(1.00002 3.93796e-05 0)
(1.00017 0.000586639 0)
(1.0013 0.000119457 0)
(1.00148 0.000488732 0)
(1.00173 0.00158806 0)
(1.00292 0.00154601 0)
(1.00401 0.00119998 0)
(1.00387 0.00170713 0)
(1.00375 0.00236515 0)
(1.00427 0.002451 0)
(1.00526 0.00229083 0)
(1.00604 0.00231255 0)
(1.00681 0.00247651 0)
(1.00768 0.00260321 0)
(1.00888 0.00263541 0)
(1.01019 0.00263378 0)
(1.01149 0.0026547 0)
(1.01251 0.00271188 0)
(1.01314 0.00278121 0)
(1.01307 0.00284509 0)
(1.00003 5.04607e-05 0)
(1.00014 0.000653127 0)
(1.00126 0.000343036 0)
(1.0016 0.000586262 0)
(1.00183 0.00166894 0)
(1.00286 0.00183857 0)
(1.004 0.00148595 0)
(1.00401 0.0018136 0)
(1.00386 0.00245635 0)
(1.00424 0.00264903 0)
(1.0052 0.00248876 0)
(1.00603 0.00241062 0)
(1.00683 0.00248222 0)
(1.00767 0.00256551 0)
(1.00884 0.00255888 0)
(1.01013 0.00249486 0)
(1.01144 0.00243027 0)
(1.01247 0.00240398 0)
(1.01312 0.0024035 0)
(1.01304 0.00241303 0)
(1.00004 7.22935e-05 0)
(1.00012 0.000711467 0)
(1.00121 0.000579737 0)
(1.00169 0.000727056 0)
(1.00195 0.00174467 0)
(1.00281 0.00209679 0)
(1.00396 0.00180361 0)
(1.00411 0.00197302 0)
(1.00396 0.00255196 0)
(1.00422 0.00282446 0)
(1.00511 0.00269622 0)
(1.00597 0.00253805 0)
(1.0068 0.00251173 0)
(1.00763 0.00252539 0)
(1.00875 0.00247393 0)
(1.01001 0.00234816 0)
(1.01133 0.00220666 0)
(1.01237 0.00209413 0)
(1.01303 0.00202066 0)
(1.01296 0.00196868 0)
(1.00005 0.000104363 0)
(1.00011 0.000768987 0)
(1.00116 0.00081097 0)
(1.00176 0.000909748 0)
(1.00206 0.00182971 0)
(1.00279 0.00232746 0)
(1.0039 0.00213077 0)
(1.00416 0.00219113 0)
(1.00406 0.0026711 0)
(1.00421 0.0029881 0)
(1.005 0.0029038 0)
(1.00586 0.00269229 0)
(1.00672 0.00256487 0)
(1.00754 0.00249294 0)
(1.00862 0.00238064 0)
(1.00984 0.00219443 0)
(1.01115 0.00197806 0)
(1.01221 0.00178236 0)
(1.01288 0.00162941 0)
(1.01281 0.00151239 0)
(1.00006 0.000144645 0)
(1.00011 0.000827752 0)
(1.0011 0.00103639 0)
(1.0018 0.00112454 0)
(1.00217 0.0019391 0)
(1.00277 0.00253829 0)
(1.00382 0.00246026 0)
(1.00418 0.00245449 0)
(1.00413 0.00282997 0)
(1.00419 0.00315145 0)
(1.00487 0.00311458 0)
(1.0057 0.00287041 0)
(1.00658 0.00264985 0)
(1.00739 0.00247841 0)
(1.00843 0.00228849 0)
(1.00961 0.00203348 0)
(1.01089 0.00173969 0)
(1.01196 0.00145816 0)
(1.01265 0.00121894 0)
(1.0126 0.00102892 0)
(1.00006 0.000190768 0)
(1.00011 0.000889563 0)
(1.00105 0.001253 0)
(1.00181 0.00136786 0)
(1.00226 0.00207958 0)
(1.00277 0.00273804 0)
(1.00373 0.00278885 0)
(1.00415 0.00275429 0)
(1.00417 0.00303048 0)
(1.00417 0.00332916 0)
(1.00472 0.00333017 0)
(1.00549 0.00307476 0)
(1.00636 0.0027732 0)
(1.00717 0.00249714 0)
(1.00818 0.00221232 0)
(1.0093 0.00187394 0)
(1.01055 0.00149372 0)
(1.01161 0.00111673 0)
(1.01233 0.000782487 0)
(1.0123 0.00050524 0)
(1.00006 0.000244261 0)
(1.00012 0.000958064 0)
(1.001 0.00145721 0)
(1.0018 0.00163039 0)
(1.00234 0.00224934 0)
(1.00278 0.00293417 0)
(1.00363 0.00311152 0)
(1.00408 0.00308742 0)
(1.00416 0.00328151 0)
(1.00412 0.00354004 0)
(1.00456 0.00356704 0)
(1.00523 0.00331007 0)
(1.00607 0.00294585 0)
(1.00686 0.00255953 0)
(1.00783 0.00216687 0)
(1.0089 0.00172181 0)