/*--------------------------------*- C++ -*----------------------------------*\
| =========                 |                                                 |
| \\      /  F ield         | OpenFOAM: The Open Source CFD Toolbox           |
|  \\    /   O peration     | Version:  v2012                                 |
|   \\  /    A nd           | Website:  www.openfoam.com                      |
|    \\/     M anipulation  |                                                 |
\*---------------------------------------------------------------------------*/
FoamFile
{
    version     2.0;
    format      ascii;
    class       volScalarField;
    location    "0.1";
    object      p;
}
// * * * * * * * * * * * * * * * * * * * * * * * * * * * * * * * * * * * * * //

dimensions      [0 2 -2 0 0 0 0];


internalField   nonuniform List<scalar> 
17600
(
-2.59237e-11
0.0038563
0.00438315
0.00267431
0.00378939
0.00201416
0.00278764
0.00344028
0.0032479
0.00306643
0.00386817
0.00402404
0.00425128
0.0047884
0.00544376
0.0064527
0.00698075
0.00875596
0.0101413
0.0130704
4.51059e-06
0.00385049
0.00438478
0.00267341
0.0037892
0.00201046
0.00278932
0.00343809
0.00324922
0.00306184
0.00386943
0.00401911
0.00425459
0.00478011
0.00544806
0.00641564
0.00698964
0.0086731
0.0101631
0.0127992
1.02257e-05
0.00383975
0.00438658
0.00267164
0.00378878
0.00200593
0.00279126
0.00343395
0.00325125
0.00305506
0.00387051
0.00401177
0.0042587
0.00476782
0.0054541
0.00638659
0.00699772
0.00859409
0.0101715
0.0123947
1.68702e-05
0.00382886
0.00438569
0.00266791
0.00378874
0.0020026
0.00279222
0.00342825
0.00325325
0.00304829
0.00387046
0.00400431
0.00426214
0.00475495
0.00546063
0.00635827
0.007004
0.00851598
0.0101453
0.0119952
2.58513e-05
0.0038189
0.00438127
0.00266106
0.00379025
0.00200137
0.0027926
0.00342111
0.00325565
0.00304201
0.00387024
0.00399728
0.00426573
0.00474171
0.00546747
0.00632913
0.00700872
0.00843421
0.0100873
0.0116233
3.79714e-05
0.00380951
0.0043732
0.00265059
0.00379434
0.00200276
0.002793
0.0034129
0.00325882
0.00303647
0.00387065
0.00399085
0.00426969
0.00472807
0.00547438
0.00629927
0.00701021
0.00834922
0.0100007
0.0112763
5.32137e-05
0.00380026
0.00436183
0.00263691
0.00380131
0.00200663
0.00279365
0.00340416
0.00326268
0.00303174
0.00387158
0.003985
0.00427346
0.00471425
0.00548042
0.00626905
0.00700654
0.00826202
0.00988584
0.0109484
7.10823e-05
0.00379088
0.00434794
0.00262088
0.00381056
0.00201231
0.00279453
0.00339526
0.00326677
0.00302762
0.00387259
0.00397961
0.00427645
0.00470059
0.00548451
0.00623929
0.00699577
0.00817435
0.00974333
0.0106341
9.09365e-05
0.00378113
0.00433238
0.00260333
0.00382113
0.00201911
0.00279551
0.00338646
0.00327065
0.00302394
0.00387331
0.00397461
0.00427826
0.0046875
0.00548582
0.00621077
0.00697604
0.00808666
0.00957556
0.010328
0.000112218
0.00377088
0.00431587
0.00258477
0.00383217
0.00202654
0.00279643
0.00337794
0.00327401
0.00302065
0.00387346
0.00397013
0.00427848
0.00467546
0.00548365
0.00618413
0.00694588
0.00799877
0.00938621
0.0100249
0.000134553
0.00376005
0.00429886
0.00256547
0.00384318
0.00203439
0.00279713
0.00336988
0.0032766
0.00301787
0.00387278
0.00396646
0.00427662
0.00466501
0.00547735
0.00615978
0.00690444
0.00790914
0.00917994
0.00972108
0.000157746
0.00374861
0.00428161
0.00254549
0.00385388
0.00204267
0.00279747
0.00336248
0.0032782
0.00301577
0.00387097
0.00396396
0.00427212
0.00465654
0.00546626
0.00613769
0.0068517
0.00781495
0.00896204
0.00941446
0.000181725
0.0037365
0.00426424
0.00252484
0.00386413
0.00205144
0.00279731
0.00335594
0.00327859
0.00301458
0.00386765
0.00396301
0.0042645
0.00465027
0.00544985
0.00611731
0.00678878
0.00771281
0.00873739
0.00910499
0.000206485
0.00372364
0.00424681
0.00250351
0.0038738
0.00206083
0.00279646
0.00335045
0.00327751
0.00301457
0.00386238
0.00396402
0.00425339
0.00464627
0.00542784
0.00609695
0.00671799
0.00759967
0.00850918
0.00879385
0.000232052
0.00370994
0.00422938
0.00248152
0.00388276
0.00207097
0.00279471
0.00334627
0.00327464
0.00301602
0.00385472
0.00396724
0.0042386
0.00464449
0.0054005
0.00607387
0.00664209
0.00747379
0.0082786
0.00848324
0.000258466
0.00369528
0.004212
0.0024589
0.00389086
0.00208201
0.0027918
0.00334366
0.00326964
0.0030192
0.00384431
0.00397275
0.00421998
0.00464457
0.00536883
0.00604508
0.00656324
0.0073349
0.00804584
0.00817558
0.000285778
0.00367954
0.00419471
0.00243569
0.00389792
0.00209411
0.00278743
0.00334291
0.00326216
0.00302437
0.00383086
0.00398053
0.00419742
0.00464487
0.00533483
0.00600815
0.00648206
0.00718433
0.00781022
0.0078724
0.000314042
0.00366256
0.00417758
0.00241196
0.00390374
0.00210748
0.00278129
0.00334431
0.00325183
0.00303173
0.00381419
0.00399033
0.00417145
0.00464335
0.00530085
0.00596144
0.00639764
0.00702475
0.00757098
0.00757392
0.00034332
0.00364421
0.00416063
0.00238779
0.00390812
0.00212236
0.00277299
0.00334819
0.00323831
0.00304136
0.0037944
0.00400143
0.00414327
0.00463771
0.00526861
0.00590444
0.00630834
0.00685953
0.00732867
0.00727992
0.000373678
0.00362433
0.00414392
0.00236329
0.00391079
0.00213901
0.00276212
0.00335484
0.00322135
0.00305321
0.00377191
0.00401281
0.00411425
0.00462554
0.00523877
0.00583782
0.0062119
0.00669166
0.00708584
0.00699037
0.000405188
0.00360273
0.00412745
0.0023386
0.00391148
0.00215773
0.00274827
0.00336451
0.00320084
0.00306684
0.0037473
0.00402433
0.00408641
0.00460497
0.00521072
0.00576353
0.00610559
0.00652225
0.00684598
0.00670645
0.000437925
0.00357926
0.00411126
0.00231387
0.00390988
0.00217885
0.00273098
0.0033774
0.00317679
0.00308161
0.00372125
0.00403137
0.00406232
0.00457528
0.00518263
0.00568453
0.00598742
0.00634962
0.00661216
0.00643115
0.00047197
0.00355374
0.00409532
0.0022893
0.00390563
0.00220275
0.0027098
0.00339362
0.0031495
0.00309647
0.0036951
0.00403332
0.00404367
0.00453684
0.00515122
0.0056041
0.00585799
0.00617081
0.00638541
0.0061685
0.000507403
0.003526
0.00407961
0.00226515
0.00389833
0.00222978
0.00268433
0.00341305
0.00311956
0.00311004
0.00367072
0.0040283
0.00403049
0.00449106
0.00511277
0.00552441
0.00572042
0.00598341
0.00616372
0.00592183
0.000544306
0.00349587
0.00406407
0.00224168
0.00388756
0.00226032
0.00265429
0.00343533
0.00308781
0.0031208
0.00365009
0.00401475
0.004022
0.00444046
0.00506381
0.00544538
0.00557903
0.00578713
0.00594336
0.00569191
0.000582762
0.00346321
0.0040486
0.00221923
0.00387285
0.00229476
0.00261944
0.00346002
0.00305526
0.00312688
0.00363543
0.00399201
0.00401593
0.0043882
0.00500168
0.00536457
0.00543856
0.00558467
0.00572056
0.00547584
0.000622847
0.00342788
0.00403306
0.00219814
0.0038537
0.00233339
0.00257974
0.00348648
0.00302345
0.00312631
0.00362835
0.0039606
0.00400855
0.00433786
0.00492577
0.00527818
0.00530267
0.00538093
0.00549309
0.00526783
0.000664631
0.0033898
0.00401727
0.00217885
0.00382959
0.00237643
0.00253529
0.00351309
0.00299464
0.00311714
0.00362932
0.00392203
0.00399534
0.00429245
0.00483817
0.00518177
0.00517252
0.00518154
0.00526143
0.00506131
0.000708178
0.00334888
0.004001
0.00216179
0.00380001
0.00242403
0.00248628
0.00353845
0.00297121
0.0030974
0.00363761
0.00387907
0.00397188
0.00425311
0.004743
0.00507131
0.00504614
0.00499196
0.00502914
0.00485131
0.000753535
0.00330511
0.00398396
0.00214743
0.00376448
0.00247618
0.00243377
0.00356073
0.0029555
0.00306583
0.00365113
0.0038357
0.00393448
0.0042182
0.00464606
0.00494479
0.00491868
0.00481634
0.00480221
0.00463602
0.000800732
0.00325851
0.0039658
0.00213627
0.00372255
0.0025327
0.00237876
0.00357777
0.00294967
0.00302201
0.00366658
0.00379666
0.00388091
0.00418366
0.00455364
0.00480362
0.00478393
0.00465571
0.00458785
0.00441754
0.00084978
0.00320917
0.00394612
0.0021288
0.00367389
0.00259317
0.00232264
0.00358757
0.00295551
0.00296632
0.00367959
0.0037666
0.00381121
0.00414366
0.00447075
0.00465296
0.00463562
0.00450646
0.00439248
0.00420162
0.000900661
0.00315722
0.00392448
0.00212548
0.00361834
0.00265697
0.00226722
0.00358775
0.00297339
0.00290068
0.0036852
0.00374907
0.00372811
0.00409115
0.00439935
0.00450049
0.00446994
0.00436138
0.0042195
0.00399632
0.000953327
0.00310289
0.00390037
0.00212674
0.00355584
0.00272274
0.00221465
0.00357584
0.00300461
0.00282841
0.00367818
0.00374555
0.00363641
0.00401948
0.00433753
0.00435527
0.00428754
0.00421141
0.00406781
0.00380991
0.00100769
0.00304647
0.00387328
0.0021329
0.0034866
0.00278917
0.00216712
0.00355006
0.00304748
0.00275359
0.00365355
0.00375489
0.00354292
0.0039241
0.00427954
0.00422595
0.00409406
0.00404773
0.00393142
0.00364844
0.00106363
0.00298831
0.00384268
0.00214416
0.00341102
0.00285469
0.00212682
0.00350908
0.00309965
0.00268105
0.00360758
0.0037735
0.00345577
0.00380379
0.00421705
0.00411853
0.00389932
0.00386445
0.00380039
0.00351391
0.00112098
0.00292885
0.00380802
0.00216066
0.00332969
0.00291764
0.00209608
0.00345204
0.0031575
0.00261631
0.00353862
0.00379576
0.00338275
0.00366137
0.00414027
0.004034
0.00371524
0.00366106
0.0036626
0.00340291
0.00117951
0.00286858
0.00376881
0.00218229
0.00324363
0.00297598
0.00207669
0.00337922
0.00321652
0.00256483
0.00344734
0.00381435
0.00332973
0.00350356
0.00403994
0.00396731
0.00355357
0.00344354
0.00350675
0.00330648
0.00123896
0.00280804
0.00372462
0.00220872
0.00315421
0.00302741
0.00206978
0.00329225
0.00327214
0.00253091
0.00333621
0.00382089
0.00329928
0.0033397
0.00390986
0.00390853
0.00342307
0.00322365
0.00332573
0.00321122
0.00129903
0.00274776
0.00367509
0.00223947
0.00306287
0.00306977
0.00207612
0.00319346
0.00331954
0.00251691
0.00320952
0.00380715
0.00328981
0.00318079
0.00374891
0.0038453
0.00332656
0.00301633
0.00311953
0.00310224
0.00135934
0.00268846
0.00362001
0.00227382
0.00297127
0.00310114
0.00209575
0.0030859
0.0033536
0.00252331
0.0030737
0.00376678
0.00329605
0.00303775
0.00356149
0.00376495
0.00325943
0.00283567
0.00289621
0.00296736
0.00141949
0.00263071
0.00355929
0.00231083
0.00288124
0.00311994
0.00212754
0.00297361
0.00337003
0.00254756
0.00293647
0.00369631
0.00331003
0.00291926
0.0033567
0.00365748
0.00321107
0.00269139
0.00267002
0.00280111
0.00147904
0.00257507
0.00349303
0.00234931
0.00279466
0.00312497
0.00216959
0.00286109
0.00336563
0.00258598
0.00280588
0.0035955
0.00332213
0.00282984
0.00314626
0.00351808
0.00316761
0.00258608
0.00245739
0.00260686
0.00153753
0.00252208
0.00342154
0.00238796
0.00271319
0.00311563
0.00221945
0.00275256
0.00333853
0.00263328
0.00268923
0.00346762
0.00332234
0.0027691
0.0029427
0.00334793
0.0031148
0.00251492
0.0022724
0.00239599
0.00159446
0.00247219
0.0033453
0.00242537
0.00263827
0.00309207
0.00227396
0.00265188
0.00328876
0.002683
0.00259183
0.00331872
0.003302
0.0027321
0.00275738
0.0031537
0.00304111
0.00246754
0.00212348
0.00218433
0.00164935
0.00242578
0.00326499
0.00246006
0.00257115
0.003055
0.00232955
0.00256232
0.00321805
0.00272823
0.0025162
0.00315674
0.00325535
0.0027107
0.00259856
0.002946
0.0029399
0.00243052
0.00201199
0.00198747
0.00170169
0.0023831
0.00318144
0.00249059
0.00251255
0.00300584
0.00238382
0.00248594
0.00312955
0.00276263
0.00246201
0.0029906
0.00318032
0.0026952
0.00246982
0.00273699
0.00281016
0.00239028
0.00193287
0.00181695
0.00175105
0.00234428
0.00309561
0.00251567
0.00246281
0.00294648
0.0024305
0.00242394
0.00302768
0.00278116
0.00242631
0.00282882
0.00307849
0.00267571
0.00236978
0.00253813
0.00265632
0.00233594
0.00187647
0.00167827
0.001797
0.00230931
0.00300858
0.00253415
0.00242154
0.00287911
0.00246795
0.00237635
0.00291756
0.00278032
0.00240415
0.00267834
0.00295454
0.002644
0.00229317
0.00235824
0.00248676
0.00226108
0.0018312
0.00157079
0.00183918
0.00227807
0.00292146
0.00254519
0.00238804
0.00280612
0.00249394
0.00234126
0.00280432
0.00275872
0.00238972
0.00254383
0.00281517
0.00259476
0.00223248
0.00220221
0.00231158
0.00216435
0.00178599
0.00148903
0.00187723
0.00225033
0.00283534
0.00254795
0.00236126
0.00272994
0.00250677
0.00231592
0.00269269
0.00271705
0.00237702
0.00242724
0.00266792
0.00252597
0.00217938
0.00207073
0.00214039
0.00204888
0.00173242
0.00142466
0.00191089
0.0022257
0.00275127
0.00254235
0.00233969
0.00265294
0.00250592
0.00229718
0.00258625
0.00265755
0.00236055
0.00232793
0.00251999
0.00243867
0.00212633
0.00196111
0.0019806
0.00192078
0.00166589
0.00136877
0.00193999
0.00220376
0.0026701
0.00252848
0.00232185
0.00257722
0.00249176
0.00228157
0.00248734
0.0025836
0.00233604
0.00224334
0.00237735
0.00233627
0.00206766
0.00186843
0.00183656
0.00178731
0.00158565
0.00131368
0.00196443
0.00218397
0.00259254
0.00250665
0.00230588
0.00250439
0.00246529
0.00226586
0.00239708
0.0024992
0.00230086
0.00216974
0.00224406
0.00222355
0.00200009
0.00178687
0.00170952
0.00165521
0.00149406
0.00125421
0.00198418
0.00216576
0.00251908
0.00247754
0.00228972
0.00243542
0.00242808
0.00224731
0.00231543
0.00240844
0.00225404
0.00210297
0.0021221
0.00210567
0.00192274
0.00171091
0.00159821
0.00152956
0.00139526
0.001188
0.00199925
0.00214853
0.00245002
0.00244208
0.00227212
0.00237066
0.00238205
0.00222389
0.00224143
0.00231496
0.00219609
0.00203918
0.00201158
0.00198728
0.00183669
0.00163623
0.00149975
0.00141327
0.00129381
0.00111519
0.00200975
0.00213173
0.00238545
0.00240132
0.0022519
0.00231003
0.00232926
0.00219428
0.00217353
0.00222167
0.00212858
0.00197523
0.00191129
0.00187197
0.00174425
0.00156008
0.00141064
0.00130724
0.00119367
0.00103756
0.00201581
0.00211485
0.00232525
0.00235633
0.00222818
0.00225306
0.00227168
0.00215794
0.0021099
0.00213061
0.0020537
0.00190906
0.00181925
0.00176205
0.00164826
0.00148126
0.00132758
0.00121082
0.00109764
0.000957631
0.00201762
0.00209741
0.00226913
0.00230821
0.00220043
0.00219905
0.00221106
0.00211497
0.00204875
0.00204291
0.00197387
0.00183967
0.00173323
0.00165855
0.00155143
0.00139986
0.00124798
0.00112248
0.00100722
0.000877834
0.00201538
0.00207902
0.0022167
0.00225793
0.00216842
0.00214715
0.00214879
0.00206598
0.00198856
0.00195896
0.00189136
0.00176698
0.00165121
0.00156152
0.00145601
0.00131677
0.00117017
0.00104045
0.000922783
0.000800067
0.00200934
0.00205939
0.00216747
0.00220637
0.00213225
0.00209651
0.00208594
0.00201192
0.00192816
0.00187862
0.00180807
0.00169154
0.00157164
0.00147039
0.00136352
0.00123328
0.00109337
0.000963099
0.000843992
0.000725509
0.0019997
0.0020383
0.0021209
0.00215424
0.00209223
0.00204637
0.0020232
0.00195391
0.00186684
0.00180143
0.00172542
0.0016143
0.00149351
0.00138426
0.00127482
0.00115065
0.00101749
0.000889205
0.000770103
0.00065468
0.00198594
0.0020156
0.00207647
0.00210211
0.00204886
0.00199613
0.00196098
0.00189307
0.00180431
0.00172685
0.00164434
0.00153631
0.00141637
0.00130224
0.0011902
0.00106995
0.000942852
0.000818014
0.000700316
0.000587623
0.00197009
0.0019913
0.0020337
0.00205037
0.00200277
0.0019454
0.00189948
0.00183045
0.00174063
0.00165433
0.0015654
0.00145858
0.00134017
0.00122359
0.00110961
0.000991907
0.000869925
0.000749177
0.000633966
0.00052411
0.00195147
0.00196534
0.00199213
0.00199931
0.00195459
0.00189398
0.00183878
0.00176695
0.00167611
0.0015835
0.00148883
0.00138196
0.00126513
0.00114783
0.00103283
0.000916957
0.000799187
0.000682629
0.0005706
0.000463821
0.00193035
0.00193782
0.00195143
0.00194911
0.00190499
0.00184187
0.00177889
0.00170334
0.0016112
0.00151414
0.00141475
0.00130711
0.00119164
0.00107468
0.000959582
0.000845296
0.00073103
0.00061847
0.000509954
0.000406461
0.00190706
0.0019089
0.00191136
0.00189989
0.00185458
0.00178925
0.00171985
0.0016402
0.00154646
0.00144621
0.00134316
0.0012345
0.0011201
0.00100409
0.000889641
0.000776968
0.000665725
0.000556855
0.000451915
0.000351814
0.0018819
0.00187876
0.00187178
0.00185174
0.00180396
0.0017364
0.00166175
0.00157801
0.00148241
0.00137985
0.00127409
0.00116445
0.00105089
0.000936146
0.000822879
0.000711945
0.00060343
0.000497933
0.00039647
0.00029976
0.0018552
0.00184768
0.00183264
0.00180475
0.00175364
0.00168373
0.00160472
0.00151717
0.0014196
0.00131527
0.00120761
0.0010972
0.000984371
0.000871016
0.000759258
0.000650196
0.000544233
0.00044184
0.000343671
0.000250238
0.00182733
0.00181592
0.00179401
0.00175902
0.0017041
0.00163167
0.00154901
0.00145804
0.00135851
0.00125278
0.00114384
0.00103295
0.000920829
0.000808889
0.000698812
0.000591728
0.000488211
0.000388685
0.000293586
0.000203252
0.00179868
0.00178385
0.00175604
0.00171473
0.00165579
0.00158071
0.00149492
0.00140099
0.00129961
0.00119275
0.00108299
0.000971916
0.000860512
0.000749971
0.000641648
0.000536594
0.000435433
0.000338563
0.000246291
0.000158836
0.00176968
0.00175184
0.00171898
0.00167207
0.00160913
0.00153134
0.00144283
0.00134637
0.00124332
0.00113554
0.0010253
0.000914298
0.00080366
0.000694491
0.000587926
0.000484889
0.000385977
0.000291562
0.000201884
0.000117083
0.0017408
0.00172034
0.00168314
0.00163133
0.00156458
0.00148411
0.00139319
0.00129459
0.00119008
0.00108157
0.000971101
0.000860343
0.000750522
0.000642693
0.000537836
0.000436739
0.000339942
0.000247795
0.000160497
7.81218e-05
0.00171259
0.00168986
0.00164894
0.00159288
0.00152258
0.00143953
0.00134648
0.00124608
0.00114036
0.00103127
0.000920725
0.000810343
0.000701373
0.000594836
0.000491589
0.000392309
0.000297481
0.000207423
0.00012229
4.20985e-05
0.00168562
0.00166094
0.00161688
0.00155715
0.00148364
0.00139816
0.00130323
0.00120133
0.00109463
0.000985096
0.000874581
0.000764646
0.000656529
0.000551203
0.000449436
0.000351827
0.000258805
0.000170643
8.74462e-05
9.18886e-06
0.00166052
0.00163419
0.00158749
0.00152467
0.00144834
0.00136066
0.00126404
0.0011609
0.0010534
0.00094353
0.000833106
0.000723641
0.000616332
0.000512103
0.000411664
0.000315558
0.000224155
0.00013767
5.61669e-05
-2.04041e-05
0.00163802
0.0016103
0.00156139
0.001496
0.00141726
0.00132768
0.00122965
0.00112548
0.00101731
0.000907176
0.000796854
0.00068782
0.000581217
0.000477925
0.00037862
0.000283799
0.000193779
0.000108723
2.8663e-05
-4.64669e-05
0.0016189
0.00159
0.00153926
0.0014717
0.00139098
0.00129985
0.00120069
0.00109572
0.000987046
0.00087671
0.000766492
0.000657819
0.00055179
0.000449246
0.00035083
0.000257002
0.000168055
8.41367e-05
5.25237e-06
-6.86947e-05
0.00160401
0.00157411
0.00152184
0.00145253
0.00137021
0.00127784
0.0011778
0.00107219
0.000963123
0.000852628
0.000742485
0.000634091
0.000528506
0.00042653
0.000328752
0.000235599
0.000147358
6.42028e-05
-1.38316e-05
-8.68623e-05
0.00159448
0.00156347
0.00150988
0.00143918
0.00135558
0.00126217
0.00116132
0.00105509
0.000945564
0.000834778
0.000724517
0.000616172
0.000510782
0.000409117
0.000311726
0.000218988
0.000131129
4.82615e-05
-2.96115e-05
-0.000102583
0.0171546
0.0110897
0.0024888
-0.00369298
-0.00570366
-0.00541086
-0.00477825
-0.00439278
-0.00422093
-0.00416867
-0.00417507
-0.00418956
-0.00419214
-0.00419751
-0.00421486
-0.00423066
-0.00423033
-0.00421079
-0.0041764
-0.00413549
-0.004089
-0.00402389
-0.00393677
-0.00385411
-0.00380457
-0.00378088
-0.00375287
-0.00371026
-0.0036704
-0.00364897
-0.00364231
-0.00363956
-0.00363779
-0.00364097
-0.00365165
-0.00366864
-0.00369007
-0.00371543
-0.00374496
-0.00377864
-0.00381609
-0.00385697
-0.003901
-0.00394798
-0.00399779
-0.00405016
-0.00410493
-0.00416192
-0.00422098
-0.004282
-0.00434481
-0.0044093
-0.0044754
-0.00454302
-0.0046121
-0.00468252
-0.00475425
-0.00482728
-0.00490151
-0.00497694
-0.00505352
-0.00513119
-0.00520997
-0.00528984
-0.00537074
-0.00545266
-0.0055356
-0.00561954
-0.00570448
-0.00579041
-0.00587728
-0.00596511
-0.0060539
-0.00614364
-0.00623434
-0.00632598
-0.00641854
-0.00651203
-0.00660647
-0.00670186
-0.00679819
-0.00689545
-0.00699365
-0.0070928
-0.0071929
-0.00729395
-0.00739595
-0.00749891
-0.00760285
-0.00770776
-0.00781363
-0.00792049
-0.00802835
-0.00813719
-0.00824704
-0.00835791
-0.00846978
-0.00858268
-0.00869661
-0.00881159
-0.00892761
-0.0090447
-0.00916285
-0.00928207
-0.00940238
-0.00952378
-0.00964627
-0.00976989
-0.00989463
-0.0100205
-0.0101475
-0.0102757
-0.010405
-0.0105355
-0.0106672
-0.0108
-0.0109341
-0.0110694
-0.0112059
-0.0113436
-0.0114826
-0.0116229
-0.0117644
-0.0119072
-0.0120513
-0.0121967
-0.0123434
-0.0124914
-0.0126408
-0.0127915
-0.0129436
-0.0130971
-0.0132519
-0.0134082
-0.0135658
-0.0137249
-0.0138854
-0.0140474
-0.0142109
-0.0143758
-0.0145422
-0.0147101
-0.0148796
-0.0150505
-0.0152231
-0.0153971
-0.0155728
-0.01575
-0.0159289
-0.0161093
-0.0162914
-0.0164752
-0.0166606
-0.0168477
-0.0170364
-0.0172269
-0.0174191
-0.0176131
-0.0178088
-0.0180062
-0.0182055
-0.0184065
-0.0186094
-0.0188141
-0.0190207
-0.0192291
-0.0194394
-0.0196516
-0.0198657
-0.0200818
-0.0202998
-0.0205198
-0.0207418
-0.0209658
-0.0211918
-0.0214199
-0.02165
-0.0218822
-0.0221164
-0.0223529
-0.0225913
-0.0228322
-0.0230748
-0.0233202
-0.0235667
-0.0238173
-0.0240671
-0.0243235
-0.0245762
-0.024838
-0.025095
-0.025359
-0.0256241
-0.0258845
-0.0261583
-0.0264152
-0.0266817
-0.0269412
-0.0271737
-0.0273977
0.0163745
0.0109149
0.0025708
-0.00356069
-0.00562634
-0.00537448
-0.00475559
-0.00437662
-0.00420897
-0.00415936
-0.00416758
-0.00418347
-0.00418718
-0.00419349
-0.00421166
-0.00422812
-0.00422829
-0.00420911
-0.00417501
-0.00413436
-0.00408814
-0.00402328
-0.00393633
-0.00385374
-0.00380426
-0.00378064
-0.00375271
-0.00371014
-0.00367031
-0.0036489
-0.00364227
-0.00363954
-0.00363778
-0.00364095
-0.00365164
-0.00366863
-0.00369007
-0.00371543
-0.00374496
-0.00377865
-0.00381609
-0.00385697
-0.003901
-0.00394799
-0.00399779
-0.00405016
-0.00410493
-0.00416192
-0.00422099
-0.004282
-0.00434481
-0.0044093
-0.0044754
-0.00454302
-0.0046121
-0.00468252
-0.00475425
-0.00482728
-0.00490151
-0.00497694
-0.00505352
-0.00513119
-0.00520997
-0.00528984
-0.00537074
-0.00545266
-0.0055356
-0.00561954
-0.00570448
-0.00579041
-0.00587728
-0.00596511
-0.0060539
-0.00614364
-0.00623434
-0.00632598
-0.00641854
-0.00651203
-0.00660647
-0.00670186
-0.00679819
-0.00689545
-0.00699365
-0.0070928
-0.0071929
-0.00729395
-0.00739595
-0.00749891
-0.00760285
-0.00770776
-0.00781363
-0.00792049
-0.00802835
-0.00813719
-0.00824704
-0.00835791
-0.00846978
-0.00858268
-0.00869661
-0.00881159
-0.00892761
-0.0090447
-0.00916285
-0.00928207
-0.00940238
-0.00952378
-0.00964627
-0.00976989
-0.00989463
-0.0100205
-0.0101475
-0.0102757
-0.010405
-0.0105355
-0.0106672
-0.0108
-0.0109341
-0.0110694
-0.0112059
-0.0113436
-0.0114826
-0.0116229
-0.0117644
-0.0119072
-0.0120513
-0.0121967
-0.0123434
-0.0124914
-0.0126408
-0.0127915
-0.0129436
-0.0130971
-0.0132519
-0.0134082
-0.0135658
-0.0137249
-0.0138854
-0.0140474
-0.0142109
-0.0143758
-0.0145422
-0.0147101
-0.0148796
-0.0150505
-0.0152231
-0.0153971
-0.0155728
-0.01575
-0.0159289
-0.0161093
-0.0162914
-0.0164752
-0.0166606
-0.0168477
-0.0170364
-0.0172269
-0.0174191
-0.0176131
-0.0178088
-0.0180062
-0.0182055
-0.0184065
-0.0186094
-0.0188141
-0.0190207
-0.0192291
-0.0194394
-0.0196516
-0.0198657
-0.0200818
-0.0202998
-0.0205198
-0.0207418
-0.0209658
-0.0211918
-0.0214199
-0.02165
-0.0218822
-0.0221164
-0.0223529
-0.0225913
-0.0228322
-0.0230748
-0.0233202
-0.0235667
-0.0238173
-0.0240671
-0.0243235
-0.0245762
-0.024838
-0.025095
-0.025359
-0.0256241
-0.0258845
-0.0261583
-0.0264152
-0.0266817
-0.0269412
-0.0271737
-0.0273977
0.0155639
0.0107474
0.00275308
-0.00330743
-0.00548433
-0.00531916
-0.00472677
-0.00435483
-0.00419154
-0.00414541
-0.00415616
-0.00417393
-0.00417917
-0.00418687
-0.0042063
-0.00422386
-0.0042249
-0.00420638
-0.00417273
-0.00413243
-0.00408655
-0.00402207
-0.00393544
-0.00385307
-0.00380374
-0.00378023
-0.00375238
-0.00370987
-0.00367011
-0.00364876
-0.00364217
-0.00363946
-0.00363771
-0.00364091
-0.00365161
-0.00366862
-0.00369006
-0.00371542
-0.00374496
-0.00377864
-0.00381609
-0.00385697
-0.003901
-0.00394799
-0.00399779
-0.00405016
-0.00410493
-0.00416192
-0.00422099
-0.004282
-0.00434481
-0.0044093
-0.0044754
-0.00454302
-0.0046121
-0.00468252
-0.00475425
-0.00482728
-0.00490151
-0.00497694
-0.00505352
-0.00513119
-0.00520997
-0.00528984
-0.00537074
-0.00545266
-0.0055356
-0.00561954
-0.00570448
-0.00579041
-0.00587728
-0.00596511
-0.0060539
-0.00614364
-0.00623434
-0.00632598
-0.00641854
-0.00651203
-0.00660647
-0.00670186
-0.00679819
-0.00689545
-0.00699365
-0.0070928
-0.0071929
-0.00729395
-0.00739595
-0.00749891
-0.00760285
-0.00770776
-0.00781363
-0.00792049
-0.00802835
-0.00813719
-0.00824704
-0.00835791
-0.00846978
-0.00858268
-0.00869661
-0.00881159
-0.00892761
-0.0090447
-0.00916285
-0.00928207
-0.00940238
-0.00952378
-0.00964627
-0.00976989
-0.00989463
-0.0100205
-0.0101475
-0.0102757
-0.010405
-0.0105355
-0.0106672
-0.0108
-0.0109341
-0.0110694
-0.0112059
-0.0113436
-0.0114826
-0.0116229
-0.0117644
-0.0119072
-0.0120513
-0.0121967
-0.0123434
-0.0124914
-0.0126408
-0.0127915
-0.0129436
-0.0130971
-0.0132519
-0.0134082
-0.0135658
-0.0137249
-0.0138854
-0.0140474
-0.0142109
-0.0143758
-0.0145422
-0.0147101
-0.0148796
-0.0150505
-0.0152231
-0.0153971
-0.0155728
-0.01575
-0.0159289
-0.0161093
-0.0162914
-0.0164752
-0.0166606
-0.0168477
-0.0170364
-0.0172269
-0.0174191
-0.0176131
-0.0178088
-0.0180062
-0.0182055
-0.0184065
-0.0186094
-0.0188141
-0.0190207
-0.0192291
-0.0194394
-0.0196516
-0.0198657
-0.0200818
-0.0202998
-0.0205198
-0.0207418
-0.0209658
-0.0211918
-0.0214199
-0.02165
-0.0218822
-0.0221164
-0.0223529
-0.0225913
-0.0228322
-0.0230748
-0.0233202
-0.0235667
-0.0238173
-0.0240671
-0.0243235
-0.0245762
-0.024838
-0.025095
-0.025359
-0.0256241
-0.0258845
-0.0261583
-0.0264152
-0.0266817
-0.0269412
-0.0271737
-0.0273977
0.0147983
0.0106019
0.00300659
-0.00297042
-0.00528578
-0.00524064
-0.00468637
-0.00432266
-0.00416483
-0.00412396
-0.00413849
-0.00415875
-0.00416593
-0.00417542
-0.00419656
-0.00421575
-0.00421831
-0.00420103
-0.00416823
-0.00412844
-0.00408299
-0.00401911
-0.00393326
-0.00385159
-0.00380267
-0.00377928
-0.0037515
-0.00370915
-0.0036696
-0.00364843
-0.00364191
-0.00363923
-0.00363753
-0.00364077
-0.00365152
-0.00366855
-0.00369001
-0.00371538
-0.00374493
-0.00377862
-0.00381607
-0.00385696
-0.00390099
-0.00394798
-0.00399778
-0.00405016
-0.00410492
-0.00416192
-0.00422098
-0.004282
-0.00434481
-0.0044093
-0.00447539
-0.00454302
-0.0046121
-0.00468252
-0.00475425
-0.00482727
-0.00490151
-0.00497694
-0.00505352
-0.00513119
-0.00520997
-0.00528984
-0.00537074
-0.00545266
-0.0055356
-0.00561954
-0.00570448
-0.00579041
-0.00587728
-0.00596511
-0.0060539
-0.00614364
-0.00623434
-0.00632598
-0.00641854
-0.00651203
-0.00660647
-0.00670186
-0.00679819
-0.00689545
-0.00699365
-0.0070928
-0.0071929
-0.00729395
-0.00739595
-0.00749891
-0.00760285
-0.00770776
-0.00781363
-0.00792049
-0.00802835
-0.00813719
-0.00824704
-0.00835791
-0.00846978
-0.00858268
-0.00869661
-0.00881159
-0.00892761
-0.0090447
-0.00916285
-0.00928207
-0.00940238
-0.00952378
-0.00964627
-0.00976989
-0.00989463
-0.0100205
-0.0101475
-0.0102757
-0.010405
-0.0105355
-0.0106672
-0.0108
-0.0109341
-0.0110694
-0.0112059
-0.0113436
-0.0114826
-0.0116229
-0.0117644
-0.0119072
-0.0120513
-0.0121967
-0.0123434
-0.0124914
-0.0126408
-0.0127915
-0.0129436
-0.0130971
-0.0132519
-0.0134082
-0.0135658
-0.0137249
-0.0138854
-0.0140474
-0.0142109
-0.0143758
-0.0145422
-0.0147101
-0.0148796
-0.0150505
-0.0152231
-0.0153971
-0.0155728
-0.01575
-0.0159289
-0.0161093
-0.0162914
-0.0164752
-0.0166606
-0.0168477
-0.0170364
-0.0172269
-0.0174191
-0.0176131
-0.0178088
-0.0180062
-0.0182055
-0.0184065
-0.0186094
-0.0188141
-0.0190207
-0.0192291
-0.0194394
-0.0196516
-0.0198657
-0.0200818
-0.0202998
-0.0205198
-0.0207418
-0.0209658
-0.0211918
-0.0214199
-0.02165
-0.0218822
-0.0221164
-0.0223529
-0.0225913
-0.0228322
-0.0230748
-0.0233202
-0.0235667
-0.0238173
-0.0240671
-0.0243235
-0.0245762
-0.024838
-0.025095
-0.025359
-0.0256241
-0.0258845
-0.0261583
-0.0264152
-0.0266817
-0.0269412
-0.0271737
-0.0273977
0.014063
0.0104412
0.00327868
-0.00260251
-0.00506235
-0.00515208
-0.00464092
-0.00428337
-0.00412978
-0.00409468
-0.00411369
-0.00413681
-0.00414621
-0.00415781
-0.00418106
-0.00420241
-0.00420715
-0.00419183
-0.00416041
-0.00412135
-0.00407641
-0.00401341
-0.00392896
-0.00384869
-0.00380055
-0.00377735
-0.00374965
-0.00370762
-0.00366853
-0.00364769
-0.00364132
-0.00363871
-0.0036371
-0.00364046
-0.0036513
-0.00366838
-0.00368987
-0.00371528
-0.00374486
-0.00377857
-0.00381604
-0.00385693
-0.00390097
-0.00394797
-0.00399777
-0.00405015
-0.00410492
-0.00416191
-0.00422098
-0.00428199
-0.0043448
-0.0044093
-0.00447539
-0.00454302
-0.0046121
-0.00468252
-0.00475425
-0.00482727
-0.00490151
-0.00497694
-0.00505352
-0.00513119
-0.00520997
-0.00528984
-0.00537074
-0.00545266
-0.0055356
-0.00561954
-0.00570448
-0.00579041
-0.00587728
-0.00596511
-0.0060539
-0.00614364
-0.00623434
-0.00632598
-0.00641854
-0.00651203
-0.00660647
-0.00670186
-0.00679819
-0.00689545
-0.00699365
-0.0070928
-0.0071929
-0.00729395
-0.00739595
-0.00749891
-0.00760285
-0.00770776
-0.00781363
-0.00792049
-0.00802835
-0.00813719
-0.00824704
-0.00835791
-0.00846978
-0.00858268
-0.00869661
-0.00881159
-0.00892761
-0.0090447
-0.00916285
-0.00928207
-0.00940238
-0.00952378
-0.00964627
-0.00976989
-0.00989463
-0.0100205
-0.0101475
-0.0102757
-0.010405
-0.0105355
-0.0106672
-0.0108
-0.0109341
-0.0110694
-0.0112059
-0.0113436
-0.0114826
-0.0116229
-0.0117644
-0.0119072
-0.0120513
-0.0121967
-0.0123434
-0.0124914
-0.0126408
-0.0127915
-0.0129436
-0.0130971
-0.0132519
-0.0134082
-0.0135658
-0.0137249
-0.0138854
-0.0140474
-0.0142109
-0.0143758
-0.0145422
-0.0147101
-0.0148796
-0.0150505
-0.0152231
-0.0153971
-0.0155728
-0.01575
-0.0159289
-0.0161093
-0.0162914
-0.0164752
-0.0166606
-0.0168477
-0.0170364
-0.0172269
-0.0174191
-0.0176131
-0.0178088
-0.0180062
-0.0182055
-0.0184065
-0.0186094
-0.0188141
-0.0190207
-0.0192291
-0.0194394
-0.0196516
-0.0198657
-0.0200818
-0.0202998
-0.0205198
-0.0207418
-0.0209658
-0.0211918
-0.0214199
-0.02165
-0.0218822
-0.0221164
-0.0223529
-0.0225913
-0.0228322
-0.0230748
-0.0233202
-0.0235667
-0.0238173
-0.0240671
-0.0243235
-0.0245762
-0.024838
-0.025095
-0.025359
-0.0256241
-0.0258845
-0.0261583
-0.0264152
-0.0266817
-0.0269413
-0.0271737
-0.0273977
0.0133467
0.0102413
0.00353972
-0.00222659
-0.00482703
-0.00506014
-0.00459609
-0.00424206
-0.0040902
-0.00406029
-0.00408383
-0.00410978