/*--------------------------------*- C++ -*----------------------------------*\
| =========                 |                                                 |
| \\      /  F ield         | OpenFOAM: The Open Source CFD Toolbox           |
|  \\    /   O peration     | Version:  v2012                                 |
|   \\  /    A nd           | Website:  www.openfoam.com                      |
|    \\/     M anipulation  |                                                 |
\*---------------------------------------------------------------------------*/
FoamFile
{
    version     2.0;
    format      ascii;
    class       surfaceScalarField;
    location    "0.1";
    object      phi;
}
// * * * * * * * * * * * * * * * * * * * * * * * * * * * * * * * * * * * * * //

dimensions      [0 3 -1 0 0 0 0];
oriented        oriented;


internalField   nonuniform List<scalar> 
34900
(
1.20171e-06
-6.60438e-07
1.15123e-06
4.90801e-07
1.17982e-06
3.49714e-07
1.16025e-06
-8.57591e-07
1.16267e-06
7.6701e-07
1.14565e-06
-2.59742e-07
1.15813e-06
1.45954e-07
1.14422e-06
-2.97776e-07
1.15189e-06
2.482e-07
1.13621e-06
-7.95836e-08
1.1449e-06
1.50517e-07
1.13116e-06
-1.131e-07
1.14128e-06
7.54492e-08
1.12622e-06
-6.101e-08
1.13612e-06
6.99321e-08
1.12084e-06
3.95959e-09
1.13037e-06
5.11241e-08
1.1152e-06
7.70158e-09
1.12121e-06
8.035e-08
-2.14042e-08
1.08033e-06
1.2587e-06
-6.94873e-07
1.2103e-06
5.392e-07
1.23709e-06
3.22921e-07
1.21425e-06
-8.3475e-07
1.21173e-06
7.69526e-07
1.19944e-06
-2.47451e-07
1.20736e-06
1.38033e-07
1.19766e-06
-2.88075e-07
1.20022e-06
2.45638e-07
1.19139e-06
-7.07474e-08
1.19342e-06
1.48481e-07
1.1882e-06
-1.07876e-07
1.18924e-06
7.44094e-08
1.18639e-06
-5.81556e-08
1.1826e-06
7.37181e-08
1.18596e-06
5.94848e-10
1.17521e-06
6.18796e-08
1.18515e-06
-2.23659e-09
1.16252e-06
1.02976e-07
-2.33312e-08
1.16445e-06
1.31454e-06
-7.26625e-07
1.27668e-06
5.77052e-07
1.29724e-06
3.02369e-07
1.27259e-06
-8.10103e-07
1.26616e-06
7.75958e-07
1.25901e-06
-2.40305e-07
1.26139e-06
1.3565e-07
1.25588e-06
-2.82563e-07
1.25303e-06
2.48484e-07
1.25187e-06
-6.95796e-08
1.24851e-06
1.51839e-07
1.25038e-06
-1.09752e-07
1.24532e-06
7.9476e-08
1.24901e-06
-6.18462e-08
1.24095e-06
8.17726e-08
1.24791e-06
-6.36066e-09
1.23835e-06
7.14375e-08
1.24381e-06
-7.6956e-09
1.23446e-06
1.12322e-07
-9.48406e-09
1.22062e-06
1.37011e-06
-7.52633e-07
1.34583e-06
6.01337e-07
1.35894e-06
2.89259e-07
1.335e-06
-7.86167e-07
1.32761e-06
7.83344e-07
1.32545e-06
-2.38142e-07
1.32262e-06
1.38483e-07
1.32011e-06
-2.80058e-07
1.31481e-06
2.53791e-07
1.31786e-06
-7.26309e-08
1.31372e-06
1.55972e-07
1.31704e-06
-1.13065e-07
1.31227e-06
8.42463e-08
1.31477e-06
-6.4346e-08
1.31018e-06
8.63567e-08
1.31325e-06
-9.42852e-09
1.30975e-06
7.49358e-08
1.30927e-06
-7.21404e-09
1.30698e-06
1.1461e-07
8.00107e-09
1.2895e-06
1.42643e-06
-7.70711e-07
1.41534e-06
6.12433e-07
1.42158e-06
2.83014e-07
1.4005e-06
-7.65082e-07
1.39588e-06
7.87965e-07
1.39633e-06
-2.38594e-07
1.39092e-06
1.43895e-07
1.3891e-06
-2.78242e-07
1.38523e-06
2.57657e-07
1.38845e-06
-7.5846e-08
1.38661e-06
1.57808e-07
1.38793e-06
-1.14386e-07
1.38567e-06
8.65086e-08
1.3854e-06
-6.40771e-08
1.38395e-06
8.78047e-08
1.3843e-06
-9.77472e-09
1.38331e-06
7.59222e-08
1.3805e-06
-4.40336e-09
1.38005e-06
1.15067e-07
2.56196e-08
1.36243e-06
1.48521e-06
-7.80243e-07
1.48442e-06
6.1322e-07
1.48593e-06
2.81502e-07
1.46849e-06
-7.47638e-07
1.46895e-06
7.87504e-07
1.4695e-06
-2.39141e-07
1.46408e-06
1.49314e-07
1.46143e-06
-2.75594e-07
1.46073e-06
2.58355e-07
1.46233e-06
-7.74399e-08
1.46276e-06
1.57374e-07
1.46179e-06
-1.13414e-07
1.46129e-06
8.70099e-08
1.45927e-06
-6.20653e-08
1.45937e-06
8.77109e-08
1.45829e-06
-8.69907e-09
1.45834e-06
7.58782e-08
1.45392e-06
9.56924e-12
1.4548e-06
1.14189e-07
4.33525e-08
1.43707e-06
1.54815e-06
-7.82174e-07
1.55394e-06
6.07426e-07
1.55333e-06
2.82117e-07
1.53903e-06
-7.33339e-07
1.54463e-06
7.81902e-07
1.54402e-06
-2.38536e-07
1.53986e-06
1.53481e-07
1.53604e-06
-2.71775e-07
1.53816e-06
2.56236e-07
1.53808e-06
-7.73579e-08
1.5398e-06
1.55652e-07
1.53717e-06
-1.10784e-07
1.53767e-06
8.65044e-08
1.53461e-06
-5.90068e-08
1.53574e-06
8.65813e-08
1.5335e-06
-6.4589e-09
1.53448e-06
7.49044e-08
1.52847e-06
6.02193e-09
1.53058e-06
1.12074e-07
6.07834e-08
1.51315e-06
1.61632e-06
-7.78362e-07
1.62557e-06
5.98172e-07
1.62479e-06
2.82903e-07
1.6125e-06
-7.21054e-07
1.62181e-06
7.72591e-07
1.62002e-06
-2.3674e-07
1.61729e-06
1.56207e-07
1.61248e-06
-2.66964e-07
1.61648e-06
2.52239e-07
1.61512e-06
-7.60037e-08
1.61759e-06
1.53186e-07
1.61377e-06
-1.06966e-07
1.61506e-06
8.5216e-08
1.61113e-06
-5.50818e-08
1.61323e-06
8.44788e-08
1.60985e-06
-3.07018e-09
1.61178e-06
7.29712e-08
1.60433e-06
1.34667e-08
1.60735e-06
1.0906e-07
7.72595e-08
1.59087e-06
1.68997e-06
-7.70755e-07
1.70079e-06
5.87348e-07
1.70069e-06
2.83009e-07
1.68933e-06
-7.09696e-07
1.70073e-06
7.61189e-07
1.69814e-06
-2.34152e-07
1.69665e-06
1.57693e-07
1.69101e-06
-2.61319e-07
1.6962e-06
2.47047e-07
1.69388e-06
-7.3679e-08
1.697e-06
1.50068e-07
1.69221e-06
-1.02181e-07
1.69428e-06
8.31448e-08
1.68949e-06
-5.02863e-08
1.69254e-06
8.14233e-08
1.68803e-06
1.43874e-09
1.69087e-06
7.01389e-08
1.6823e-06
2.20325e-08
1.68576e-06
1.05595e-07
9.21752e-08
1.67085e-06
1.76882e-06
-7.60851e-07
1.78042e-06
5.75747e-07
1.78099e-06
2.82438e-07
1.76985e-06
-6.98558e-07
1.78229e-06
7.48752e-07
1.77919e-06
-2.31059e-07
1.77874e-06
1.58149e-07
1.77228e-06
-2.54859e-07
1.77836e-06
2.40967e-07
1.7752e-06
-7.05168e-08
1.77904e-06
1.46223e-07
1.77336e-06
-9.65001e-08
1.77627e-06
8.02388e-08
1.77056e-06
-4.4578e-08
1.77454e-06
7.74465e-08
1.76898e-06
6.99678e-09
1.77254e-06
6.65808e-08
1.76327e-06
3.13016e-08
1.76667e-06
1.02195e-07
1.05034e-07
1.75381e-06
1.85246e-06
-7.49565e-07
1.86468e-06
5.63527e-07
1.86557e-06
2.81551e-07
1.85434e-06
-6.87323e-07
1.86735e-06
7.35735e-07
1.86382e-06
-2.27527e-07
1.86427e-06
1.57696e-07
1.85694e-06
-2.47527e-07
1.86384e-06
2.34065e-07
1.85986e-06
-6.65343e-08
1.86453e-06
1.41556e-07
1.85793e-06
-8.99037e-08
1.86172e-06
7.64449e-08
1.85508e-06
-3.79293e-08
1.85991e-06
7.26112e-08
1.85345e-06
1.34616e-08
1.85744e-06
6.25863e-08
1.84796e-06
4.07858e-08
1.85076e-06
9.93897e-08
1.15487e-07
1.84031e-06
1.94063e-06
-7.37354e-07
1.95355e-06
5.50605e-07
1.95439e-06
2.80711e-07
1.94299e-06
-6.75922e-07
1.95646e-06
7.2226e-07
1.95244e-06
-2.23502e-07
1.95375e-06
1.56379e-07
1.94548e-06
-2.39251e-07
1.95324e-06
2.26304e-07
1.94839e-06
-6.16876e-08
1.95396e-06
1.3599e-07
1.9464e-06
-8.23435e-08
1.95111e-06
7.17333e-08
1.94354e-06
-3.03574e-08
1.94911e-06
6.7043e-08
1.94198e-06
2.05921e-08
1.94601e-06
5.8554e-08
1.93683e-06
4.99642e-08
1.93861e-06
9.76119e-08
1.23398e-07
1.9307e-06
2.03324e-06
-7.24404e-07
2.04697e-06
5.36873e-07
2.04752e-06
2.80159e-07
2.03598e-06
-6.64384e-07
2.04991e-06
7.08332e-07
2.04532e-06
-2.18906e-07
2.0475e-06
1.54192e-07
2.03821e-06
-2.2996e-07
2.04691e-06
2.17611e-07
2.04113e-06
-5.59116e-08
2.04765e-06
1.29467e-07
2.03909e-06
-7.37834e-08
2.04471e-06
6.61184e-08
2.0363e-06
-2.19488e-08
2.04238e-06
6.09603e-08
2.03493e-06
2.80394e-08
2.03853e-06
5.49555e-08
2.03015e-06
5.83468e-08
2.03066e-06
9.71045e-08
1.28883e-07
2.02517e-06
2.13037e-06
-7.10775e-07
2.14499e-06
5.22253e-07
2.14512e-06
2.80027e-07
2.1335e-06
-6.52757e-07
2.14789e-06
6.93944e-07
2.14266e-06
-2.13681e-07
2.14575e-06
1.511e-07
2.13538e-06
-2.1959e-07
2.14507e-06
2.07919e-07
2.13831e-06
-4.91476e-08
2.14582e-06
1.2196e-07
2.13626e-06
-6.42304e-08
2.1427e-06
5.96804e-08
2.13364e-06
-1.28818e-08
2.13991e-06
5.4688e-08
2.13258e-06
3.53689e-08
2.13526e-06
5.2273e-08
2.12806e-06
6.55477e-08
2.12728e-06
9.7889e-08
1.32266e-07
2.12389e-06
2.23219e-06
-6.96478e-07
2.24775e-06
5.06698e-07
2.24739e-06
2.8038e-07
2.23572e-06
-6.41081e-07
2.25057e-06
6.79094e-07
2.24467e-06
-2.07783e-07
2.24871e-06
1.47056e-07
2.23721e-06
-2.08085e-07
2.24795e-06
1.97177e-07
2.24016e-06
-4.13607e-08
2.24864e-06
1.1348e-07
2.23817e-06
-5.3755e-08
2.24526e-06
5.25848e-08
2.23582e-06
-3.4376e-09
2.24188e-06
4.86302e-08
2.2351e-06
4.2143e-08
2.23648e-06
5.08925e-08
2.23068e-06
7.1353e-08
2.22879e-06
9.97806e-08
1.34004e-07
2.22705e-06
2.33891e-06
-6.81508e-07
2.35542e-06
4.90183e-07
2.35455e-06
2.81249e-07
2.34285e-06
-6.29378e-07
2.35816e-06
6.63784e-07
2.35155e-06
-2.01177e-07
2.3566e-06
1.42008e-07
2.34392e-06
-1.954e-07
2.35574e-06
1.85356e-07
2.34693e-06
-3.25515e-08
2.35632e-06
1.0409e-07
2.34506e-06
-4.25028e-08
2.35256e-06
4.50935e-08
2.34312e-06
5.99985e-09
2.3485e-06
4.32508e-08
2.34267e-06
4.79696e-08
2.34253e-06
5.10343e-08
2.33812e-06
7.57654e-08
2.33547e-06
1.02428e-07
1.34587e-07
2.33489e-06
2.45075e-06
-6.65857e-07
2.46823e-06
4.72694e-07
2.46684e-06
2.82647e-07
2.45512e-06
-6.17658e-07
2.47089e-06
6.48008e-07
2.46354e-06
-1.93825e-07
2.46964e-06
1.35906e-07
2.45575e-06
-1.81504e-07
2.46865e-06
1.72459e-07
2.45886e-06
-2.2765e-08
2.46903e-06
9.39174e-08
2.45723e-06
-3.0704e-08
2.46477e-06
3.75564e-08
2.45579e-06
1.49825e-08
2.46002e-06
3.90142e-08
2.45543e-06
5.25662e-08
2.45378e-06
5.26825e-08
2.45053e-06
7.90186e-08
2.44757e-06
1.05386e-07
1.34455e-07
2.4477e-06
2.56796e-06
-6.49521e-07
2.58643e-06
4.54226e-07
2.5845e-06
2.8457e-07
2.57276e-06
-6.05916e-07
2.58902e-06
6.3175e-07
2.58088e-06
-1.85685e-07
2.58808e-06
1.287e-07
2.57296e-06
-1.66384e-07
2.5869e-06
1.5852e-07
2.57624e-06
-1.21017e-08
2.58699e-06
8.31646e-08
2.57497e-06
-1.86792e-08
2.58212e-06
3.04036e-08
2.57406e-06
2.30391e-08
2.57677e-06
3.63127e-08
2.57351e-06
5.58177e-08
2.57062e-06
5.5572e-08
2.56813e-06
8.15129e-08
2.56529e-06
1.08223e-07
1.33941e-07
2.56581e-06
2.6908e-06
-6.32497e-07
2.71024e-06
4.34787e-07
2.70781e-06
2.87e-07
2.69603e-06
-5.94132e-07
2.7128e-06
6.14981e-07
2.70382e-06
-1.76704e-07
2.71217e-06
1.20348e-07
2.69584e-06
-1.50051e-07
2.71073e-06
1.43621e-07
2.69936e-06
-7.28469e-10
2.71041e-06
7.21204e-08
2.69856e-06
-6.83595e-09
2.70486e-06
2.41073e-08
2.69814e-06
2.97573e-08
2.69908e-06
3.53751e-08
2.69708e-06
5.78203e-08
2.69338e-06
5.92674e-08
2.69123e-06
8.36619e-08
2.68883e-06
1.10627e-07
1.3324e-07
2.68953e-06
2.81956e-06
-6.14787e-07
2.83995e-06
4.14397e-07
2.83705e-06
2.89904e-07
2.82518e-06
-5.82269e-07
2.8425e-06
5.9766e-07
2.83263e-06
-1.66828e-07
2.84216e-06
1.10817e-07
2.82466e-06
-1.3255e-07
2.84038e-06
1.27898e-07
2.82853e-06
1.11172e-08
2.8395e-06
6.11506e-08
2.82831e-06
4.35859e-09
2.83328e-06
1.91395e-08
2.8282e-06
3.48348e-08
2.82736e-06
3.62186e-08
2.8263e-06
5.88808e-08
2.8223e-06
6.32639e-08
2.82019e-06
8.57675e-08
2.81837e-06
1.12456e-07
1.32424e-07
2.81918e-06
2.95451e-06
-5.96399e-07
2.97582e-06
3.93086e-07
2.97249e-06
2.93231e-07
2.9605e-06
-5.70274e-07
2.97843e-06
5.7973e-07
2.96759e-06
-1.55995e-07
2.97832e-06
1.00089e-07
2.95973e-06
-1.1396e-07
2.97609e-06
1.11541e-07
2.96408e-06
2.31223e-08
2.97453e-06
5.06982e-08
2.96449e-06
1.43989e-08
2.96771e-06
1.59222e-08
2.96441e-06
3.81338e-08
2.96202e-06
3.86152e-08
2.96142e-06
5.94778e-08
2.95759e-06
6.70907e-08
2.95541e-06
8.79499e-08
2.95414e-06
1.13728e-07
1.31498e-07
2.95506e-06
3.09595e-06
-5.77345e-07
3.11814e-06
3.70903e-07
3.11445e-06
2.96912e-07
3.10226e-06
-5.58075e-07
3.12086e-06
5.61121e-07
3.10901e-06
-1.44144e-07
3.12094e-06
8.81647e-08
3.10138e-06
-9.44067e-08
3.11811e-06
9.48115e-08
3.10633e-06
3.49012e-08
3.11579e-06
4.12438e-08
3.10737e-06
2.28231e-08
3.10855e-06
1.47418e-08
3.10694e-06
3.97381e-08
3.10345e-06
4.21056e-08
3.10279e-06
6.01432e-08
3.09945e-06
7.04271e-08
3.09725e-06
9.01473e-08
3.09643e-06
1.14549e-07
1.30453e-07
3.09748e-06
3.24421e-06
-5.57644e-07
3.2672e-06
3.47908e-07
3.26326e-06
3.0086e-07
3.25077e-06
-5.45585e-07
3.27013e-06
5.41757e-07
3.25721e-06
-1.31221e-07
3.2703e-06
7.50754e-08
3.24996e-06
-7.40696e-08
3.26673e-06
7.80382e-08
3.25563e-06
4.60032e-08
3.26359e-06
3.32867e-08
3.25716e-06
2.92498e-08
3.25621e-06
1.5696e-08
3.25597e-06
3.99713e-08
3.252e-06
4.60817e-08
3.25082e-06
6.13208e-08
3.24808e-06
7.31617e-08
3.24605e-06
9.21857e-08
3.24558e-06
1.15018e-07
1.29302e-07
3.24673e-06
3.39961e-06
-5.37321e-07
3.42334e-06
3.24179e-07
3.41923e-06
3.04968e-07
3.40634e-06
-5.32699e-07
3.42655e-06
5.21551e-07
3.41251e-06
-1.17179e-07
3.4267e-06
6.08867e-08
3.40581e-06
-5.31853e-08
3.42224e-06
6.16139e-08
3.41231e-06
5.59341e-08
3.41828e-06
2.73102e-08
3.41411e-06
3.34242e-08
3.41115e-06
1.86493e-08
3.41176e-06
3.93682e-08
3.40792e-06
4.99231e-08
3.406e-06
6.32406e-08
3.40377e-06
7.53917e-08
3.40208e-06
9.38685e-08
3.40193e-06
1.15167e-07
1.28062e-07
3.40317e-06
3.5625e-06
-5.16412e-07
3.58687e-06
2.99812e-07
3.58273e-06
3.09112e-07
3.56933e-06
-5.19299e-07
3.59046e-06
5.00417e-07
3.57527e-06
-1.01992e-07
3.59045e-06
4.5707e-08
3.56932e-06
-3.20526e-08
3.58494e-06
4.59953e-08
3.5767e-06
6.41697e-08
3.58027e-06
2.3743e-08
3.57842e-06
3.52718e-08
3.57387e-06
2.32027e-08
3.57464e-06
3.86022e-08
3.57143e-06
5.31284e-08
3.56881e-06
6.5865e-08
3.56683e-06
7.73637e-08
3.56564e-06
9.50616e-08
3.56584e-06
1.1497e-07
1.2672e-07
3.56718e-06
3.73325e-06
-4.94955e-07
3.75814e-06
2.74916e-07
3.75411e-06
3.1315e-07
3.74006e-06
-5.05256e-07
3.76221e-06
4.78271e-07
3.74588e-06
-8.5661e-08
3.76189e-06
2.96985e-08
3.74087e-06
-1.1038e-08
3.75519e-06
3.16757e-08
3.74912e-06
7.02457e-08
3.75002e-06
2.28377e-08
3.7503e-06
3.49934e-08
3.74479e-06
2.8712e-08
3.74503e-06
3.83656e-08
3.74276e-06
5.53957e-08
3.73969e-06
6.89299e-08
3.7377e-06
7.93587e-08
3.73701e-06
9.5753e-08
3.73762e-06
1.14358e-07
1.25221e-07
3.73912e-06
3.91223e-06
-4.73001e-07
3.93753e-06
2.49622e-07
3.93375e-06
3.16924e-07
3.91893e-06
-4.90435e-07
3.94216e-06
4.5504e-07
3.92472e-06
-6.82198e-08
3.94134e-06
1.30824e-08
3.92088e-06
9.42278e-09
3.93336e-06
1.91907e-08
3.92986e-06
7.37445e-08
3.92803e-06
2.46708e-08
3.92999e-06
3.30313e-08
3.92429e-06
3.44117e-08
3.92344e-06
3.92243e-08
3.92214e-06
5.66902e-08
3.91906e-06
7.2012e-08
3.91684e-06
8.15816e-08
3.91652e-06
9.60637e-08
3.91761e-06
1.13271e-07
1.23485e-07
3.91935e-06
4.09986e-06
-4.50609e-07
4.1254e-06
2.24075e-07
4.12207e-06
3.20263e-07
4.10633e-06
-4.74696e-07
4.1307e-06
4.30669e-07
4.11223e-06
-4.97486e-08
4.12917e-06
-3.861e-09
4.10974e-06
2.88526e-08
4.11987e-06
9.06115e-09
4.11923e-06
7.43809e-08
4.11486e-06
2.90459e-08
4.11782e-06
3.00737e-08
4.11271e-06
3.95152e-08
4.11043e-06
4.1508e-08
4.10986e-06
5.72583e-08
4.10723e-06
7.46411e-08
4.10474e-06
8.40712e-08
4.10459e-06
9.62149e-08
4.10615e-06
1.11713e-07
1.21426e-07
4.10821e-06
4.29654e-06
-4.27845e-07
4.32218e-06
1.98438e-07
4.31946e-06
3.22983e-07
4.30267e-06
-4.57906e-07
4.3282e-06
4.05133e-07
4.30883e-06
-3.03823e-08
4.32576e-06
-2.07817e-08
4.30788e-06
4.6732e-08
4.31518e-06
1.76232e-09
4.31749e-06
7.20646e-08
4.31104e-06
3.5496e-08
4.31416e-06
2.69518e-08
4.31033e-06
4.33516e-08
4.30662e-06
4.5217e-08
4.30629e-06
5.75831e-08
4.3045e-06
7.64314e-08
4.30191e-06
8.66596e-08
4.30167e-06
9.64577e-08
4.3036e-06
1.09785e-07
1.1898e-07
4.30605e-06
4.50272e-06
-4.04786e-07
4.52826e-06
1.7289e-07
4.52635e-06
3.24894e-07
4.50839e-06
-4.39941e-07
4.53508e-06
3.78442e-07
4.51501e-06
-1.0314e-08
4.5315e-06
-3.72735e-08
4.5157e-06
6.25384e-08
4.5198e-06
-2.34034e-09
4.52494e-06
6.69207e-08
4.51709e-06
4.3348e-08
4.51952e-06
2.4524e-08
4.51739e-06
4.54753e-08
4.51259e-06
5.00257e-08
4.51192e-06
5.82444e-08
4.51115e-06
7.72027e-08
4.5088e-06
8.9009e-08
4.50829e-06
9.69732e-08
4.51039e-06
1.07686e-07
1.16136e-07
4.51323e-06
4.71885e-06
-3.81518e-07
4.74411e-06
1.47623e-07
4.7432e-06
3.25803e-07
4.72396e-06
-4.20698e-07
4.75175e-06
3.5065e-07
4.73124e-06
1.01981e-08
4.74684e-06
-5.2878e-08
4.73362e-06
7.57603e-08
4.7343e-06
-3.0196e-09
4.74191e-06
5.9313e-08
4.7335e-06
5.17572e-08
4.73444e-06
2.35795e-08
4.73417e-06
4.57497e-08
4.72886e-06
5.53358e-08
4.72735e-06
5.97568e-08
4.7275e-06
7.70478e-08
4.7258e-06
9.07102e-08
4.72499e-06
9.77862e-08
4.727e-06
1.05678e-07
1.12959e-07
4.73017e-06
4.94541e-06
-3.58136e-07
4.9702e-06
1.22842e-07
4.97048e-06
3.25521e-07
4.94988e-06
-4.00098e-07
4.97866e-06
3.2187e-07
4.95803e-06
3.08316e-08
4.97225e-06
-6.71047e-08
4.96205e-06
8.59613e-08
4.95929e-06
-2.56735e-10
4.96877e-06
4.98313e-08
4.96072e-06
5.98064e-08
4.95958e-06
2.47167e-08
4.96096e-06
4.43728e-08
4.95589e-06
6.0402e-08
4.95322e-06
6.2429e-08
4.95395e-06
7.63168e-08
4.95325e-06
9.14097e-08
4.95231e-06
9.87331e-08
4.95398e-06
1.04008e-07
1.0961e-07
4.95733e-06
5.18292e-06
-3.34741e-07
5.207e-06
9.87593e-08
5.20866e-06
3.23867e-07
5.18666e-06
-3.78103e-07
5.21626e-06
2.92272e-07
5.19589e-06
5.12069e-08
5.20824e-06
-7.94542e-08
5.2014e-06
9.27992e-08
5.19537e-06
5.77515e-09
5.20597e-06
3.92294e-08
5.19916e-06
6.66165e-08
5.19565e-06
2.8229e-08
5.19815e-06
4.18699e-08
5.19408e-06
6.44705e-08
5.19024e-06
6.62736e-08
5.19102e-06
7.55365e-08
5.1915e-06
9.09281e-08
5.19074e-06
9.94913e-08
5.19192e-06
1.02825e-07
1.06315e-07
5.19522e-06
5.43189e-06
-3.11444e-07
5.45506e-06
7.55925e-08
5.45825e-06
3.20679e-07
5.43486e-06
-3.5472e-07
5.46504e-06
2.62092e-07
5.44536e-06
7.08946e-08
5.45535e-06
-8.94489e-08
5.45207e-06
9.60831e-08
5.44317e-06
1.46702e-08
5.45401e-06
2.83934e-08
5.44919e-06
7.14342e-08
5.44335e-06
3.40719e-08
5.44623e-06
3.89822e-08
5.44375e-06
6.69501e-08
5.43905e-06
7.09777e-08
5.43931e-06
7.52744e-08
5.4409e-06
8.93422e-08
5.44073e-06
9.96573e-08
5.44144e-06
1.02115e-07
1.03329e-07
5.44443e-06
5.69288e-06
-2.88362e-07
5.71491e-06
5.35594e-08
5.71977e-06
3.1582e-07
5.69505e-06
-3.30005e-07
5.72552e-06
2.31628e-07
5.70698e-06
8.94354e-08
5.71419e-06
-9.66585e-08
5.71448e-06
9.57858e-08
5.70334e-06
2.58173e-08
5.71347e-06
1.82572e-08
5.71117e-06
7.37409e-08
5.7034e-06
4.18368e-08
5.70583e-06
3.65572e-08
5.70525e-06
6.7531e-08
5.70027e-06
7.59553e-08
5.69956e-06
7.59797e-08
5.70191e-06
8.69969e-08
5.7027e-06
9.88693e-08
5.70313e-06
1.01681e-07
1.00855e-07
5.7056e-06
5.96645e-06
-2.65616e-07
5.98713e-06
3.28728e-08
5.99377e-06
3.09186e-07
5.96784e-06
-3.04076e-07
5.99823e-06
2.01233e-07
5.98131e-06
1.06353e-07
5.98538e-06
-1.00724e-07
5.98911e-06
9.20518e-08
5.97649e-06
3.8443e-08
5.98502e-06
9.72279e-09
5.98546e-06
7.33017e-08
5.97649e-06
5.08114e-08
5.97764e-06
3.54013e-08
5.97892e-06
6.62503e-08
5.97441e-06
8.04736e-08
5.97254e-06
7.78488e-08
5.9751e-06
8.44323e-08
5.97703e-06
9.6938e-08
5.97754e-06
1.01172e-07
9.89807e-08
5.97942e-06
6.2532e-06
-2.43329e-07
6.27234e-06
1.37339e-08
6.28081e-06
3.00717e-07
6.25385e-06
-2.77116e-07
6.28376e-06
1.71321e-07
6.26893e-06
1.21189e-07
6.26963e-06
-1.01427e-07
6.27643e-06
8.52452e-08
6.26324e-06
5.16347e-08
6.26937e-06
3.59351e-09
6.27251e-06
7.01689e-08
6.26321e-06
6.01112e-08
6.2625e-06
3.61093e-08
6.26525e-06
6.3497e-08
6.2619e-06
8.38198e-08
6.259e-06
8.07542e-08
6.26118e-06
8.22528e-08
6.26418e-06
9.39362e-08
6.26518e-06
1.0017e-07
9.76306e-08
6.26653e-06
6.55377e-06
-2.21626e-07
6.57117e-06
-3.67398e-09
6.58149e-06
2.90399e-07
6.55375e-06
-2.49368e-07
6.58272e-06
1.42342e-07
6.57039e-06
1.33524e-07
6.56766e-06
-9.86934e-08
6.57701e-06
7.58923e-08
6.56417e-06
6.44787e-08
6.56733e-06
4.25643e-10
6.57278e-06
6.47256e-08
6.5641e-06
6.87853e-08
6.56125e-06
3.89626e-08
6.56482e-06
5.99258e-08
6.56317e-06
8.54672e-08
6.55966e-06
8.42629e-08
6.56095e-06
8.09636e-08
6.56468e-06
9.02122e-08
6.56653e-06
9.83193e-08
9.65535e-08
6.5676e-06
6.86879e-06
-2.00629e-07
6.88431e-06
-1.91919e-08
6.89644e-06
2.78274e-07
6.8682e-06
-2.21137e-07
6.89579e-06
1.14758e-07
6.8863e-06
1.4301e-07
6.88022e-06
-9.26112e-08
6.89144e-06
6.46721e-08
6.87983e-06
7.60897e-08
6.87975e-06
5.04322e-10
6.88687e-06
5.76104e-08
6.87967e-06
7.59763e-08
6.87476e-06
4.38763e-08
6.87836e-06
5.63281e-08
6.87863e-06
8.51922e-08
6.87515e-06
8.77435e-08
6.87529e-06
8.08251e-08
6.8792e-06
8.63037e-08
6.88205e-06
9.54643e-08
9.53702e-08
6.88324e-06
7.19896e-06
-1.80454e-07
7.21246e-06
-3.26916e-08
7.22629e-06
2.64443e-07
7.19793e-06
-1.92777e-07
7.22366e-06
8.90335e-08
7.21727e-06
1.49393e-07
7.20811e-06
-8.34481e-08
7.22039e-06
5.23931e-08
7.21079e-06
8.56921e-08
7.20751e-06
3.78449e-09
7.21546e-06
4.96601e-08
7.21041e-06
8.10257e-08
7.20387e-06
5.04177e-08
7.20671e-06
5.34805e-08
7.20879e-06
8.31173e-08
7.20601e-06
9.0521e-08
7.20505e-06
8.17862e-08
7.20857e-06
8.2785e-08
7.21231e-06
9.17242e-08
9.36836e-08
7.214e-06
7.54498e-06
-1.61211e-07
7.55637e-06
-4.40815e-08
7.57175e-06
2.49064e-07
7.54366e-06
-1.64681e-07
7.56709e-06
6.56016e-08
7.56393e-06
1.52548e-07
7.55213e-06
-7.16477e-08
7.56461e-06
3.99136e-08
7.55759e-06
9.27144e-08
7.55151e-06
9.86817e-09
7.55932e-06
4.18492e-08
7.55681e-06
8.35366e-08
7.54933e-06
5.78944e-08
7.55082e-06
5.19913e-08
7.55426e-06
7.9671e-08
7.55275e-06
9.20349e-08
7.55103e-06
8.35119e-08
7.5537e-06
8.01071e-08
7.55797e-06
8.746e-08
9.1225e-08
7.56043e-06
7.9076e-06
-1.42998e-07
7.91683e-06
-5.33125e-08
7.93354e-06
2.32354e-07
7.90613e-06
-1.37269e-07
7.92689e-06
4.48421e-08
7.92695e-06
1.52487e-07
7.9131e-06
-5.77991e-08
7.92492e-06
2.80955e-08
7.92085e-06
9.67819e-08
7.91257e-06
1.81495e-08
7.91936e-06
3.50605e-08
7.91943e-06
8.34661e-08
7.91185e-06
6.5476e-08
7.91165e-06
5.21881e-08
7.91584e-06
7.54833e-08
7.91591e-06
9.19631e-08
7.91393e-06
8.54872e-08
7.91556e-06
7.84854e-08
7.91986e-06
8.31563e-08
8.79565e-08
7.92313e-06
8.28758e-06
-1.25898e-07
8.29465e-06
-6.03817e-08
8.31242e-06
2.1458e-07
8.28612e-06
-1.10961e-07
8.30391e-06
2.70525e-08
8.30703e-06
1.49367e-07
8.29181e-06
-4.25844e-08
8.30222e-06
1.76854e-08
8.30118e-06
9.78274e-08
8.29151e-06
2.7812e-08
8.29656e-06
3.00159e-08
8.29892e-06
8.11017e-08
8.29206e-06
7.2339e-08
8.29018e-06
5.40706e-08
8.29441e-06
7.12513e-08
8.29609e-06
9.02837e-08
8.29444e-06
8.71414e-08
8.29505e-06
7.78726e-08
8.29893e-06
7.92697e-08
8.40794e-08
8.30281e-06
8.68574e-06
-1.0998e-07
8.69069e-06
-6.53324e-08
8.70922e-06
1.96051e-07
8.68442e-06
-8.61628e-08
8.69905e-06
1.24313e-08
8.70492e-06
1.43491e-07
8.68909e-06
-2.6751e-08
8.69749e-06
9.28925e-09
8.69926e-06
9.60518e-08
8.68912e-06
3.79529e-08
8.69196e-06
2.71797e-08
8.69607e-06
7.69921e-08
8.69061e-06
7.77995e-08
8.68734e-06
5.73337e-08
8.69099e-06
6.76051e-08
8.69402e-06
8.72551e-08
8.69318e-06
8.79783e-08
8.69305e-06
7.80052e-08
8.69621e-06
7.61082e-08
7.99491e-08
8.70034e-06
9.10293e-06
-9.52927e-08
9.10585e-06
-6.8255e-08
9.1248e-06
1.77108e-07
9.10188e-06
-6.3243e-08
9.11324e-06
1.06635e-09
9.12145e-06
1.35281e-07
9.10575e-06
-1.10502e-08
9.11171e-06
3.3318e-09
9.1159e-06
9.18629e-08
9.10613e-06
4.77173e-08
9.10661e-06
2.67053e-08
9.11175e-06
7.18461e-08
9.10814e-06
8.1412e-08
9.10402e-06
6.14507e-08
9.10664e-06
6.49919e-08
9.11056e-06
8.33363e-08
9.11085e-06
8.76837e-08
9.11037e-06
7.84839e-08
9.1127e-06
7.3783e-08
7.59451e-08
9.1167e-06
9.54003e-06
-8.18648e-08
9.54106e-06
-6.92862e-08
9.56006e-06
1.58112e-07
9.53933e-06
-4.25104e-08
9.54748e-06
-7.08719e-09
9.55749e-06
1.2527e-07
9.54262e-06
3.82383e-09
9.54596e-06
-1.36102e-11
9.55194e-06
8.58887e-08
9.54331e-06
5.63416e-08
9.54158e-06
2.84428e-08
9.547e-06
6.64221e-08
9.5454e-06
8.30161e-08
9.54105e-06
6.57986e-08
9.54243e-06
6.36056e-08
9.5467e-06
7.90754e-08
9.5482e-06
8.61788e-08
9.54781e-06
7.88706e-08
9.54938e-06
7.22209e-08
7.23602e-08
9.55296e-06
9.99797e-06
-6.97042e-08
9.99729e-06
-6.86041e-08
1.0016e-05
1.39424e-07
9.99767e-06
-2.41989e-08
1.00028e-05
-1.22015e-08
1.0014e-05
1.14063e-07
1.00005e-05
1.72636e-08
1.00013e-05
-7.82737e-10
1.00084e-05
7.88294e-08
1.00014e-05
6.32796e-08
9.9979e-06
3.1987e-08
1.00029e-05
6.1407e-08
1.00032e-05
8.27268e-08
9.99922e-06
6.97739e-08
9.99945e-06
6.33805e-08
1.00035e-05
7.4989e-08
1.00061e-05
8.36138e-08
1.00062e-05
7.87865e-08
1.00072e-05
7.12123e-08
6.9348e-08
1.00102e-05
1.04777e-05
-5.87981e-08
1.04755e-05
-6.64199e-08
1.04936e-05
1.21395e-07
1.04778e-05
-8.45944e-09
1.04802e-05
-1.45495e-08
1.0492e-05
1.02269e-07
1.04804e-05
2.88187e-08
1.04789e-05
7.84177e-10
1.04863e-05
7.13909e-08
1.04813e-05
6.82286e-08
1.04766e-05
3.67641e-08
1.04807e-05
5.73203e-08
1.04825e-05
8.08824e-08
1.04794e-05
7.28931e-08
1.04787e-05
6.40485e-08
1.04822e-05
7.14654e-08
1.04855e-05
8.03054e-08
1.04863e-05
7.79892e-08
1.04871e-05
7.04733e-08
6.69223e-08
1.04895e-05
1.09803e-05
-4.91141e-08
1.09769e-05
-6.29701e-08
1.09939e-05
1.04344e-07
1.09808e-05
4.64928e-09
1.09808e-05
-1.44944e-08
1.09926e-05
9.04727e-08
1.09832e-05
3.82103e-08
1.09797e-05
4.28156e-09
1.09869e-05
6.42104e-08
1.0984e-05
7.11284e-08
1.09786e-05
4.21341e-08
1.09814e-05
5.44628e-08
1.09844e-05
7.79569e-08
1.09824e-05
7.48545e-08
1.09812e-05
6.52273e-08
1.0984e-05
6.87072e-08
1.09877e-05
7.66413e-08
1.09892e-05
7.64098e-08
1.099e-05
6.97126e-08
6.49879e-08
1.09919e-05
1.15068e-05
-4.06001e-08
1.15024e-05
-5.85073e-08
1.15182e-05
8.85455e-08
1.15077e-05
1.51668e-08
1.15056e-05
-1.24741e-08
1.15169e-05
7.92006e-08
1.15098e-05
4.53365e-08
1.15049e-05
9.19048e-09
1.15113e-05
5.7804e-08
1.15103e-05
7.21318e-08
1.15049e-05
4.74848e-08
1.15065e-05
5.29056e-08
1.151e-05
7.44645e-08
1.15093e-05
7.55589e-08
1.1508e-05
6.65097e-08
1.151e-05
6.67302e-08
1.15136e-05
7.29861e-08
1.15159e-05
7.41413e-08
1.15169e-05
6.86947e-08
6.33819e-08
1.15185e-05
1.20584e-05
-3.31895e-08
1.20532e-05
-5.3288e-08
1.20675e-05
7.42163e-08
1.20595e-05
2.32252e-08
1.2056e-05
-8.96563e-09
1.20663e-05
6.88703e-08
1.20613e-05
5.02832e-08
1.20556e-05
1.49361e-08
1.20609e-05
5.25295e-08
1.20614e-05
7.15509e-08
1.20566e-05
5.23037e-08
1.2057e-05
5.2517e-08
1.20606e-05
7.0875e-08
1.20611e-05
7.50899e-08
1.206e-05
6.75391e-08
1.20614e-05
6.5404e-08
1.20647e-05
6.96109e-08
1.20675e-05
7.1387e-08
1.20689e-05
6.72834e-08
6.19187e-08
1.20704e-05
1.26362e-05
-2.68023e-08
1.26305e-05
-4.75604e-08
1.26432e-05
6.15041e-08
1.26374e-05
2.9037e-08
1.26329e-05
-4.45506e-09
1.26419e-05
5.97972e-08
1.2639e-05
5.32521e-08
1.26329e-05
2.09726e-08
1.26369e-05
4.85608e-08
1.26387e-05
6.97916e-08
1.26347e-05
5.62287e-08
1.26342e-05
5.30222e-08
1.26376e-05
6.75519e-08
1.2639e-05
7.36645e-08
1.26385e-05
6.8061e-08
1.26394e-05
6.45113e-08
1.26423e-05
6.66611e-08
1.26453e-05
6.83892e-08
1.26471e-05
6.54531e-08
6.04318e-08
1.26486e-05
1.32415e-05
-2.13485e-08
1.32355e-05
-4.15592e-08
1.32465e-05
5.04894e-08
1.32427e-05
3.28749e-08
1.32376e-05
5.99908e-10
1.32452e-05
5.21687e-08
1.32439e-05
5.45377e-08
1.32381e-05
2.6828e-08
1.32407e-05
4.59029e-08
1.32433e-05
6.72868e-08
1.32404e-05
5.90645e-08
1.32394e-05
5.40736e-08
1.32422e-05
6.47178e-08
1.32443e-05
7.15685e-08
1.32444e-05
6.79456e-08
1.32451e-05
6.38092e-08
1.32476e-05
6.41624e-08
1.32506e-05
6.53667e-08
1.32528e-05
6.32698e-08
5.88055e-08
1.32544e-05
1.38755e-05
-1.67324e-08
1.38695e-05
-3.54968e-08
1.38788e-05
4.11868e-08
1.38766e-05
3.50467e-08
1.38714e-05
5.80237e-09
1.38775e-05
4.60429e-08
1.38776e-05
5.44917e-08
1.38723e-05
3.21336e-08
1.38738e-05
4.44222e-08
1.38766e-05
6.44364e-08
1.38749e-05
6.07721e-08
1.38737e-05
5.53199e-08
1.38759e-05
6.24512e-08
1.38784e-05
6.90949e-08
1.38792e-05
6.71816e-08
1.38799e-05
6.30807e-08
1.3882e-05
6.20493e-08
1.38849e-05
6.24753e-08
1.38873e-05
6.08516e-08
5.69887e-08
1.38891e-05
1.45398e-05
-1.28568e-08
1.45338e-05
-2.95549e-08
1.45415e-05
3.35478e-08
1.45407e-05
3.58796e-08
1.45356e-05
1.08229e-08
1.45403e-05
4.13692e-08
1.45413e-05
5.34813e-08
1.45368e-05
3.66386e-08
1.45373e-05
4.38899e-08
1.45402e-05
6.15648e-08
1.45395e-05
6.1438e-08
1.45384e-05
5.64588e-08
1.45402e-05
6.07107e-08
1.45428e-05
6.64944e-08
1.45441e-05
6.5848e-08
1.4545e-05
6.21674e-08
1.45468e-05
6.02048e-08
1.45495e-05
5.97952e-08
1.4552e-05
5.8326e-08
5.49888e-08
1.4554e-05
1.52357e-05
-9.62672e-09
1.523e-05
-2.38803e-08
1.52361e-05
2.74698e-08
1.52362e-05
3.5698e-08
1.52316e-05
1.54114e-08
1.5235e-05
3.80095e-08
1.52366e-05
5.18528e-08
1.52331e-05
4.02102e-08
1.52329e-05
4.40287e-08
1.52356e-05
5.88976e-08
1.52358e-05
6.12314e-08
1.5235e-05
5.72684e-08
1.52363e-05
5.93752e-08
1.52389e-05
6.39461e-08
1.52406e-05
6.40765e-08
1.52418e-05
6.09818e-08
1.52435e-05
5.8499e-08
1.5246e-05
5.73394e-08
1.52485e-05
5.57987e-08
5.28517e-08
1.52507e-05
1.59647e-05
-6.95095e-09
1.59594e-05
-1.85852e-08
1.5964e-05
2.28071e-08
1.59649e-05
3.4805e-08
1.59609e-05
1.93999e-08
1.59632e-05
3.57652e-08
1.59651e-05
4.99047e-08
1.59625e-05
4.282e-08
1.5962e-05
4.4556e-08
1.59643e-05
5.65575e-08
1.59652e-05
6.0359e-08
1.59648e-05
5.76189e-08
1.59659e-05
5.82863e-08
1.59683e-05
6.15496e-08
1.59704e-05
6.20132e-08
1.59719e-05
5.95028e-08
1.59736e-05
5.68183e-08
1.59758e-05
5.5074e-08
1.59783e-05
5.33383e-08
5.06379e-08
1.59805e-05
1.67284e-05
-4.74526e-09
1.67236e-05
-1.37474e-08
1.6727e-05
1.93846e-08
1.67283e-05
3.34678e-08
1.6725e-05
2.26973e-08
1.67264e-05
3.44046e-08
1.67284e-05
4.78699e-08
1.67267e-05
4.45212e-08
1.67261e-05
4.52169e-08
1.6728e-05
5.45763e-08
1.67294e-05
5.90269e-08
1.67295e-05
5.74653e-08
1.67305e-05
5.72855e-08
1.67327e-05
5.93335e-08
1.6735e-05
5.97895e-08
1.67367e-05
5.77577e-08
1.67384e-05
5.50819e-08
1.67406e-05
5.29417e-08
1.67429e-05
5.09755e-08
4.84037e-08
1.67452e-05
1.75285e-05
-2.9339e-09
1.75242e-05
-9.41357e-09
1.75266e-05
1.70106e-08
1.75281e-05
3.19079e-08
1.75256e-05
2.5279e-08
1.75263e-05
3.36886e-08
1.75282e-05
4.5909e-08
1.75273e-05
4.5422e-08
1.75268e-05
4.58064e-08
1.75284e-05
5.29165e-08
1.753e-05
5.74123e-08
1.75307e-05
5.68286e-08
1.75317e-05
5.62404e-08
1.75338e-05
5.72748e-08
1.75361e-05
5.75038e-08
1.7538e-05
5.58018e-08
1.75398e-05
5.32461e-08
1.75419e-05
5.08819e-08
1.75442e-05
4.87108e-08
4.61894e-08
1.75464e-05
1.83669e-05
-1.45087e-09
1.83631e-05
-5.60198e-09
1.83646e-05
1.54881e-08
1.83662e-05
3.02955e-08
1.83643e-05
2.71727e-08
1.83646e-05
3.33923e-08
1.83664e-05
4.41132e-08
1.83661e-05
4.56583e-08
1.83658e-05
4.61787e-08
1.83672e-05
5.14976e-08
1.8369e-05
5.56479e-08
1.837e-05
5.57712e-08
1.83712e-05
5.50589e-08
1.83732e-05
5.5321e-08
1.83754e-05
5.52168e-08
1.83775e-05
5.36977e-08
1.83795e-05
5.12993e-08
1.83815e-05
4.88445e-08
1.83837e-05
4.65264e-08
4.40171e-08
1.83859e-05
1.92452e-05
-2.39868e-10
1.92419e-05
-2.30879e-09
1.92427e-05
1.46264e-08
1.92443e-05
2.87493e-08
1.9243e-05
2.84418e-08
1.92431e-05
3.33195e-08
1.92447e-05
4.2514e-08
1.9245e-05
4.53709e-08
1.92449e-05
4.62463e-08
1.92462e-05
5.02206e-08
1.9248e-05
5.3818e-08
1.92494e-05
5.43739e-08
1.92508e-05
5.369e-08
1.92527e-05