/*--------------------------------*- C++ -*----------------------------------*\
| =========                 |                                                 |
| \\      /  F ield         | OpenFOAM: The Open Source CFD Toolbox           |
|  \\    /   O peration     | Version:  v2012                                 |
|   \\  /    A nd           | Website:  www.openfoam.com                      |
|    \\/     M anipulation  |                                                 |
\*---------------------------------------------------------------------------*/
FoamFile
{
    version     2.0;
    format      ascii;
    class       volVectorField;
    location    "0.1";
    object      U;
}
// * * * * * * * * * * * * * * * * * * * * * * * * * * * * * * * * * * * * * //

dimensions      [0 1 -1 0 0 0 0];


internalField   nonuniform List<vector> 
17600
(
(0.940768 -0.00640755 0)
(1.11283 0.00508612 0)
(0.86448 0.00440552 0)
(1.1437 -0.0112612 0)
(0.856612 0.0108322 0)
(1.11752 -0.00415262 0)
(0.858145 0.00254858 0)
(1.11136 -0.00554913 0)
(0.858789 0.00498909 0)
(1.10132 -0.0018992 0)
(0.855879 0.00362758 0)
(1.09195 -0.0030586 0)
(0.855341 0.00223199 0)
(1.08757 -0.00206321 0)
(0.850735 0.0024228 0)
(1.08337 -7.149e-05 0)
(0.843784 0.00206026 0)
(1.0816 8.74259e-05 0)
(0.831094 0.00347272 0)
(1.081 -0.00115024 0)
(0.945421 -0.00679496 0)
(1.10636 0.00554856 0)
(0.878984 0.00403154 0)
(1.13093 -0.0109866 0)
(0.866008 0.0108376 0)
(1.10028 -0.00390178 0)
(0.871244 0.00238244 0)
(1.09128 -0.00533561 0)
(0.874383 0.00488677 0)
(1.07719 -0.00162248 0)
(0.878663 0.00350488 0)
(1.06221 -0.00281642 0)
(0.886572 0.00207001 0)
(1.04919 -0.00180925 0)
(0.895575 0.00235455 0)
(1.03042 0.000134082 0)
(0.911041 0.00226127 0)
(1.00541 6.96411e-05 0)
(0.931284 0.00478989 0)
(0.967916 -0.00232023 0)
(0.953692 -0.00717089 0)
(1.09244 0.00611311 0)
(0.904352 0.00369616 0)
(1.10921 -0.0106502 0)
(0.886494 0.0108846 0)
(1.07598 -0.00372637 0)
(0.897152 0.00225487 0)
(1.06178 -0.00517198 0)
(0.903032 0.0048596 0)
(1.04395 -0.00148842 0)
(0.914593 0.00349173 0)
(1.02612 -0.00276476 0)
(0.927926 0.00210586 0)
(1.00991 -0.00181535 0)
(0.940661 0.00255549 0)
(0.99149 -0.000123649 0)
(0.954939 0.00265472 0)
(0.975001 -0.000252955 0)
(0.963384 0.00504961 0)
(0.962019 -0.00115434 0)
(0.964153 -0.00746323 0)
(1.07262 0.00649761 0)
(0.93394 0.00349385 0)
(1.08168 -0.0103293 0)
(0.914127 0.0109816 0)
(1.05169 -0.0036591 0)
(0.928663 0.00226169 0)
(1.03395 -0.00511142 0)
(0.934727 0.00495263 0)
(1.0174 -0.00153022 0)
(0.947898 0.00360091 0)
(1.00325 -0.00285816 0)
(0.958918 0.00227616 0)
(0.991865 -0.00192708 0)
(0.966058 0.00278183 0)
(0.982031 -0.00030053 0)
(0.972066 0.00288874 0)
(0.976171 -0.000328619 0)
(0.972086 0.00518151 0)
(0.972343 -1.84885e-06 0)
(0.97492 -0.00767718 0)
(1.0504 0.00668787 0)
(0.961187 0.00338677 0)
(1.0536 -0.0100474 0)
(0.942284 0.0110834 0)
(1.03213 -0.00365304 0)
(0.957144 0.0023531 0)
(1.01446 -0.00508587 0)
(0.960805 0.00507118 0)
(1.00364 -0.00160902 0)
(0.971043 0.00369537 0)
(0.99554 -0.00292229 0)
(0.977007 0.00239707 0)
(0.98959 -0.00196023 0)
(0.978975 0.00290003 0)
(0.985024 -0.000360207 0)
(0.980969 0.0029801 0)
(0.982368 -0.000260956 0)
(0.979354 0.00524268 0)
(0.979269 0.000959149 0)
(0.984273 -0.00780867 0)
(1.02974 0.00673846 0)
(0.981784 0.00334802 0)
(1.03012 -0.00980489 0)
(0.965279 0.0111278 0)
(1.01904 -0.00366446 0)
(0.977799 0.00246012 0)
(1.0039 -0.00504498 0)
(0.978404 0.00513023 0)
(0.999385 -0.00165615 0)
(0.984886 0.0037156 0)
(0.995424 -0.00291737 0)
(0.987099 0.00243416 0)
(0.992269 -0.00191837 0)
(0.986721 0.00292273 0)
(0.989566 -0.00035503 0)
(0.987415 0.00300253 0)
(0.987454 -0.000120352 0)
(0.985448 0.00522275 0)
(0.98453 0.00187123 0)
(0.991234 -0.00785994 0)
(1.01352 0.00669798 0)
(0.994644 0.00334834 0)
(1.01393 -0.00959982 0)
(0.980626 0.0110874 0)
(1.01151 -0.00366479 0)
(0.990318 0.00254575 0)
(0.999306 -0.00498098 0)
(0.988737 0.00511325 0)
(0.999145 -0.00166825 0)
(0.992563 0.00368341 0)
(0.99695 -0.00286618 0)
(0.992785 0.00242464 0)
(0.994872 -0.00183921 0)
(0.991568 0.00289147 0)
(0.992895 -0.00029407 0)
(0.991688 0.00297108 0)
(0.990964 0.000100666 0)
(0.989459 0.00513741 0)
(0.988334 0.00277881 0)
(0.995706 -0.00784576 0)
(1.00268 0.00660509 0)
(1.00119 0.00336022 0)
(1.00475 -0.00942535 0)
(0.988975 0.010976 0)
(1.00761 -0.00364647 0)
(0.996778 0.00260124 0)
(0.997595 -0.00490056 0)
(0.994122 0.00504425 0)
(0.999666 -0.00165331 0)
(0.996481 0.00362821 0)
(0.998025 -0.00278402 0)
(0.995783 0.00239396 0)
(0.996394 -0.00173472 0)
(0.994254 0.0028298 0)
(0.994803 -0.000185904 0)
(0.994053 0.00289784 0)
(0.992998 0.000399248 0)
(0.991704 0.00500006 0)
(0.990625 0.00364229 0)
(0.998199 -0.00778578 0)
(0.996483 0.00648833 0)
(1.0038 0.00336731 0)
(1.00053 -0.00927011 0)
(0.992586 0.0108226 0)
(1.00568 -0.00361373 0)
(0.999605 0.00263186 0)
(0.997 -0.00480611 0)
(0.996574 0.00494762 0)
(0.99996 -0.00161614 0)
(0.998212 0.00356118 0)
(0.998483 -0.00267642 0)
(0.997151 0.00234781 0)
(0.997076 -0.00160498 0)
(0.995503 0.0027421 0)
(0.995681 -3.7803e-05 0)
(0.995139 0.00279035 0)
(0.993971 0.000760972 0)
(0.992803 0.00482944 0)
(0.991832 0.00442369 0)
(0.999411 -0.0076968 0)
(0.993459 0.0063626 0)
(1.00448 0.00336507 0)
(0.99901 -0.00912308 0)
(0.993735 0.0106498 0)
(1.00474 -0.00357144 0)
(1.00062 0.00264473 0)
(0.996798 -0.00469684 0)
(0.997514 0.00483423 0)
(1.00001 -0.00155918 0)
(0.998817 0.00348087 0)
(0.998598 -0.00254446 0)
(0.997665 0.00228096 0)
(0.997315 -0.00144529 0)
(0.995983 0.00262242 0)
(0.995994 0.000149224 0)
(0.995547 0.00264783 0)
(0.994369 0.00116421 0)
(0.993299 0.00465594 0)
(0.992454 0.00509869 0)
(0.99993 -0.00759011 0)
(0.992219 0.00623165 0)
(1.00445 0.00335633 0)
(0.998646 -0.0089775 0)
(0.993932 0.0104683 0)
(1.00428 -0.00352158 0)
(1.00088 0.00264335 0)
(0.996743 -0.00457172 0)
(0.997805 0.00470548 0)
(0.999958 -0.00148258 0)
(0.998949 0.00338173 0)
(0.998586 -0.00238735 0)
(0.997818 0.00218728 0)
(0.997377 -0.00125262 0)
(0.996141 0.002469 0)
(0.996073 0.000372681 0)
(0.995679 0.00247632 0)
(0.99453 0.00158425 0)
(0.993552 0.00451306 0)
(0.992833 0.00564572 0)
(1.00013 -0.00747203 0)
(0.991822 0.0060943 0)
(1.00426 0.00334587 0)
(0.998663 -0.00883061 0)
(0.993898 0.0102808 0)
(1.00404 -0.00346404 0)
(1.0009 0.00262819 0)
(0.996748 -0.00442976 0)
(0.997883 0.0045603 0)
(0.999902 -0.001387 0)
(0.998934 0.0032616 0)
(0.998549 -0.00220587 0)
(0.997858 0.00206615 0)
(0.997389 -0.00103121 0)
(0.996199 0.00229034 0)
(0.996083 0.000624828 0)
(0.995732 0.0022931 0)
(0.994625 0.00199239 0)
(0.993737 0.00442973 0)
(0.993138 0.00605356 0)
(1.00021 -0.00734561 0)
(0.991768 0.00594874 0)
(1.00405 0.00333745 0)
(0.998772 -0.00868192 0)
(0.993868 0.0100874 0)
(1.00389 -0.00339811 0)
(1.00086 0.00259904 0)
(0.996778 -0.00427044 0)
(0.997917 0.00439832 0)
(0.999862 -0.00127349 0)
(0.998893 0.00312062 0)
(0.998516 -0.00199937 0)
(0.997876 0.0019185 0)
(0.997396 -0.000785719 0)
(0.996242 0.00209128 0)
(0.996081 0.000897712 0)
(0.995779 0.00212541 0)
(0.994718 0.00235596 0)
(0.993915 0.00441959 0)
(0.993431 0.00633318 0)
(1.00024 -0.00721204 0)
(0.991838 0.00579374 0)
(1.00385 0.00333334 0)
(0.998894 -0.00853184 0)
(0.993876 0.00988778 0)
(1.00377 -0.00332303 0)
(1.00083 0.00255537 0)
(0.996818 -0.00409238 0)
(0.997953 0.00421746 0)
(0.999835 -0.00113902 0)
(0.998857 0.0029554 0)
(0.998488 -0.00176362 0)
(0.997898 0.00174308 0)
(0.997405 -0.000517593 0)
(0.996289 0.00187387 0)
(0.996084 0.00117474 0)
(0.995834 0.00200241 0)
(0.994824 0.0026545 0)
(0.994099 0.00448356 0)
(0.993726 0.00651777 0)
(1.00026 -0.00707168 0)
(0.991951 0.00562866 0)
(1.00366 0.0033347 0)
(0.999015 -0.0083809 0)
(0.993912 0.00968166 0)
(1.00366 -0.00323785 0)
(1.0008 0.00249589 0)
(0.99686 -0.00389337 0)
(0.997996 0.00401474 0)
(0.999812 -0.000980733 0)
(0.998827 0.00276453 0)
(0.998462 -0.0015013 0)
(0.997926 0.00154732 0)
(0.997414 -0.000237666 0)
(0.996344 0.00164969 0)
(0.996094 0.00143557 0)
(0.995895 0.00194263 0)
(0.994947 0.0028849 0)
(0.99429 0.00460195 0)
(0.994021 0.00663755 0)
(1.00028 -0.00692456 0)
(0.99208 0.00545314 0)
(1.00347 0.00334207 0)
(0.999137 -0.00822948 0)
(0.99396 0.00946901 0)
(1.00355 -0.00314204 0)
(1.00078 0.0024199 0)
(0.996901 -0.00367316 0)
(0.998045 0.00379069 0)
(0.99979 -0.000800485 0)
(0.998804 0.00255137 0)
(0.998435 -0.00121967 0)
(0.997958 0.00133835 0)
(0.997422 5.57872e-05 0)
(0.996403 0.00144726 0)
(0.996112 0.00166275 0)
(0.99596 0.00195121 0)
(0.995084 0.00305714 0)
(0.994486 0.00474199 0)
(0.994311 0.00671575 0)
(1.00029 -0.00677062 0)
(0.992218 0.00526697 0)
(1.00327 0.00335575 0)
(0.999259 -0.0080779 0)
(0.994018 0.00924999 0)
(1.00344 -0.00303537 0)
(1.00076 0.00232718 0)
(0.996941 -0.00343201 0)
(0.998098 0.00354623 0)
(0.999767 -0.000599059 0)
(0.998785 0.00231776 0)
(0.998406 -0.000921468 0)
(0.997996 0.00111967 0)
(0.997431 0.000350941 0)
(0.996464 0.00128915 0)
(0.99614 0.00183505 0)
(0.996026 0.00202313 0)
(0.995233 0.00319146 0)
(0.994688 0.00487965 0)
(0.994596 0.00677668 0)
(1.0003 -0.00660981 0)
(0.992362 0.00507006 0)
(1.00307 0.00337575 0)
(0.999382 -0.00792614 0)
(0.994081 0.00902442 0)
(1.00332 -0.00291705 0)
(1.00075 0.0022166 0)
(0.996978 -0.00316847 0)
(0.998155 0.00327992 0)
(0.999742 -0.000375613 0)
(0.99877 0.00206629 0)
(0.998376 -0.000612592 0)
(0.998037 0.000905071 0)
(0.997443 0.000615929 0)
(0.996524 0.00118444 0)
(0.99618 0.00194476 0)
(0.996096 0.00214374 0)
(0.99539 0.00330491 0)
(0.994896 0.00499415 0)
(0.994875 0.00682052 0)
(1.00032 -0.00644208 0)
(0.992512 0.00486244 0)
(1.00287 0.00340193 0)
(0.999503 -0.00777396 0)
(0.994151 0.00879183 0)
(1.0032 -0.0027859 0)
(1.00074 0.00208635 0)
(0.997013 -0.00288104 0)
(0.998216 0.00299102 0)
(0.999715 -0.000132376 0)
(0.998759 0.00180219 0)
(0.998344 -0.000303912 0)
(0.998081 0.00071014 0)
(0.997459 0.000842548 0)
(0.996581 0.00114647 0)
(0.996232 0.00200505 0)
(0.99617 0.00229457 0)
(0.995552 0.00341164 0)
(0.99511 0.00507278 0)
(0.995148 0.00682955 0)
(1.00033 -0.00626742 0)
(0.992668 0.00464423 0)
(1.00267 0.00343403 0)
(0.999625 -0.00762114 0)
(0.994227 0.00855179 0)
(1.00307 -0.00264143 0)
(1.00073 0.00193654 0)
(0.997046 -0.00257206 0)
(0.99828 0.00268468 0)
(0.999687 0.000121353 0)
(0.998752 0.00153887 0)
(0.998313 -1.41453e-05 0)
(0.998124 0.000549238 0)
(0.997483 0.0010169 0)
(0.996634 0.00117626 0)
(0.996294 0.00203256 0)
(0.996252 0.00245458 0)
(0.995717 0.00352905 0)
(0.995327 0.00512314 0)
(0.995418 0.00679758 0)
(1.00034 -0.00608589 0)
(0.992829 0.00441572 0)
(1.00246 0.00347156 0)
(0.999745 -0.00746713 0)
(0.994308 0.00830378 0)
(1.00294 -0.00248322 0)
(1.00073 0.00176782 0)
(0.997075 -0.0022437 0)
(0.998348 0.00236452 0)
(0.999658 0.000381347 0)
(0.998746 0.00128181 0)
(0.998283 0.000261169 0)
(0.998166 0.000439691 0)
(0.997517 0.00112903 0)
(0.996683 0.00126034 0)
(0.996364 0.0020436 0)
(0.996344 0.00259869 0)
(0.995881 0.00366717 0)
(0.995543 0.00516909 0)
(0.995681 0.00673666 0)
(1.00035 -0.00589757 0)
(0.992997 0.00417732 0)
(1.00226 0.0035138 0)
(0.999865 -0.00731104 0)
(0.994395 0.00804673 0)
(1.0028 -0.00230934 0)
(1.00073 0.00157789 0)
(0.997101 -0.00189402 0)
(0.998418 0.00203124 0)
(0.999629 0.000642427 0)
(0.998743 0.00104209 0)
(0.998258 0.000510449 0)
(0.998203 0.000390556 0)
(0.99756 0.00117836 0)
(0.996731 0.00137966 0)
(0.99644 0.00206203 0)
(0.996448 0.0027071 0)
(0.996048 0.00381271 0)
(0.995753 0.00522779 0)
(0.995935 0.00666253 0)
(1.00036 -0.00570266 0)
(0.993171 0.00392969 0)
(1.00205 0.00355965 0)
(0.999984 -0.00715151 0)
(0.994487 0.00777917 0)
(1.00266 -0.00211885 0)
(1.00074 0.00136695 0)
(0.997123 -0.00152629 0)
(0.998492 0.00169187 0)
(0.999601 0.0008931 0)
(0.99874 0.000839474 0)
(0.998238 0.0007033 0)
(0.998233 0.00040423 0)
(0.997612 0.00117868 0)
(0.996781 0.00151361 0)
(0.996517 0.00210706 0)
(0.996564 0.00277738 0)
(0.996221 0.00393284 0)
(0.995957 0.00529633 0)
(0.996176 0.00658819 0)
(1.00037 -0.00550133 0)
(0.993351 0.00367349 0)
(1.00184 0.00360826 0)
(1.0001 -0.00698788 0)
(0.994585 0.00750093 0)
(1.00251 -0.00191244 0)
(1.00075 0.00113867 0)
(0.997141 -0.00114994 0)
(0.998567 0.00136174 0)
(0.999575 0.00111933 0)
(0.998735 0.000681864 0)
(0.998226 0.000837375 0)
(0.998256 0.000483336 0)
(0.997672 0.00115366 0)
(0.996837 0.00164463 0)
(0.996593 0.00218659 0)
(0.996687 0.00283085 0)
(0.996403 0.00401001 0)
(0.996157 0.00536187 0)
(0.996399 0.00652893 0)
(1.00038 -0.00529391 0)
(0.993538 0.00340975 0)
(1.00162 0.00365798 0)
(1.00022 -0.0068181 0)
(0.99469 0.00720946 0)
(1.00236 -0.00168692 0)
(1.00077 0.000890162 0)
(0.997154 -0.000763931 0)
(0.998643 0.001041 0)
(0.999554 0.00131977 0)
(0.998726 0.000574421 0)
(0.998224 0.00090562 0)
(0.998272 0.000609754 0)
(0.997737 0.00111924 0)
(0.996903 0.00175293 0)
(0.996667 0.0023004 0)
(0.996814 0.00289038 0)
(0.996594 0.00404682 0)
(0.996358 0.00540458 0)
(0.996603 0.0064907 0)
(1.00039 -0.00508078 0)
(0.993733 0.00313959 0)
(1.00141 0.00370731 0)
(1.00033 -0.00664091 0)
(0.994803 0.00690456 0)
(1.0022 -0.00144442 0)
(1.0008 0.000626945 0)
(0.997165 -0.000377066 0)
(0.998716 0.000737219 0)
(0.99954 0.00148608 0)
(0.99871 0.000526717 0)
(0.998233 0.000908107 0)
(0.998285 0.00076524 0)
(0.997802 0.00109751 0)
(0.996981 0.00182289 0)
(0.996743 0.00243892 0)
(0.996938 0.00296838 0)
(0.996791 0.00405209 0)
(0.996564 0.00540543 0)
(0.996794 0.00645974 0)
(1.00039 -0.00486236 0)
(0.993934 0.00286427 0)
(1.0012 0.00375456 0)
(1.00044 -0.00645469 0)
(0.994925 0.00658522 0)
(1.00203 -0.00118456 0)
(1.00084 0.000352257 0)
(0.997173 3.08427e-06 0)
(0.998786 0.000473008 0)
(0.999536 0.0015932 0)
(0.998685 0.000544714 0)
(0.998251 0.0008573 0)
(0.998298 0.000932187 0)
(0.997863 0.00111107 0)
(0.997072 0.00184924 0)
(0.996825 0.00257845 0)
(0.997057 0.00306962 0)
(0.996988 0.00403887 0)
(0.996778 0.00535987 0)
(0.996977 0.00641325 0)
(1.0004 -0.00463925 0)
(0.994143 0.00258543 0)
(1.00099 0.00379739 0)
(1.00054 -0.00625664 0)
(0.995056 0.00624827 0)
(1.00186 -0.000905583 0)
(1.00088 6.79811e-05 0)
(0.997181 0.000372709 0)
(0.998849 0.000251944 0)
(0.999543 0.00163633 0)
(0.998651 0.000627834 0)
(0.998276 0.00077306 0)
(0.998317 0.00108781 0)
(0.997918 0.00117384 0)
(0.997175 0.00184271 0)
(0.996918 0.00269401 0)
(0.997168 0.00319358 0)
(0.997179 0.00402341 0)
(0.996998 0.00527429 0)
(0.997162 0.00633205 0)
(1.0004 -0.00441202 0)
(0.994358 0.00230463 0)
(1.00078 0.00383415 0)
(1.00064 -0.00604639 0)
(0.995198 0.00589607 0)
(1.00167 -0.000613462 0)
(1.00093 -0.00021806 0)
(0.997191 0.000718668 0)
(0.9989 7.99009e-05 0)
(0.999565 0.00161156 0)
(0.998609 0.000768065 0)
(0.998305 0.000682712 0)
(0.998347 0.00121221 0)
(0.997964 0.00129004 0)
(0.997284 0.00182626 0)
(0.997026 0.00276713 0)
(0.997275 0.00333381 0)
(0.997358 0.00402444 0)
(0.997219 0.00516143 0)
(0.997353 0.00621083 0)
(1.00041 -0.00418145 0)
(0.994581 0.00202387 0)
(1.00058 0.00386223 0)
(1.00073 -0.00582133 0)
(0.99535 0.00552708 0)
(1.00148 -0.000308264 0)
(1.00099 -0.000501835 0)
(0.997205 0.00102887 0)
(0.998938 -2.59646e-05 0)
(0.999603 0.00152076 0)
(0.998563 0.000949509 0)
(0.998332 0.00060706 0)
(0.998392 0.0012871 0)
(0.998004 0.00145029 0)
(0.997391 0.0018259 0)
(0.997152 0.00278957 0)
(0.997383 0.00347173 0)
(0.99752 0.00405576 0)
(0.997436 0.00503637 0)
(0.997552 0.00605178 0)
(1.00041 -0.00394831 0)
(0.99481 0.00174513 0)
(1.00037 0.0038794 0)
(1.00081 -0.00557971 0)
(0.995515 0.00514058 0)
(1.00128 7.71433e-06 0)
(1.00105 -0.000775683 0)
(0.997227 0.00129592 0)
(0.998958 -7.1979e-05 0)
(0.999656 0.00136828 0)
(0.998516 0.00115357 0)
(0.998352 0.000565283 0)
(0.998454 0.00130338 0)
(0.998042 0.00163289 0)
(0.99749 0.00186117 0)
(0.997294 0.00276425 0)
(0.9975 0.00357867 0)
(0.997664 0.00411988 0)
(0.997639 0.00491931 0)
(0.997755 0.00586401 0)
(1.0004 -0.00371356 0)
(0.995045 0.00147065 0)
(1.00018 0.00388344 0)
(1.00088 -0.00532126 0)
(0.995692 0.00474031 0)
(1.00107 0.000325878 0)
(1.00111 -0.00102858 0)
(0.99726 0.00151094 0)
(0.998959 -5.41036e-05 0)
(0.999724 0.00116621 0)
(0.998475 0.00135775 0)
(0.998359 0.000573677 0)
(0.998534 0.0012626 0)
(0.998086 0.00181105 0)
(0.997574 0.0019443 0)
(0.997446 0.00270966 0)
(0.997634 0.00363195 0)
(0.997793 0.00420558 0)
(0.997821 0.00483287 0)
(0.997958 0.00566441 0)
(1.0004 -0.00347816 0)
(0.995286 0.00120268 0)
(0.999991 0.0038721 0)
(1.00094 -0.00504455 0)
(0.995881 0.00432647 0)
(1.00086 0.000642954 0)
(1.00117 -0.00125339 0)
(0.997306 0.00166239 0)
(0.998938 4.10043e-05 0)
(0.999805 0.000934795 0)
(0.998445 0.00153845 0)
(0.998349 0.000642564 0)
(0.998627 0.00117817 0)
(0.998144 0.00195889 0)
(0.997642 0.00207709 0)
(0.997598 0.00265201 0)
(0.99779 0.00362111 0)
(0.997919 0.00428528 0)
(0.997977 0.0047865 0)
(0.998149 0.00546947 0)
(1.0004 -0.00324318 0)
(0.995532 0.000943673 0)
(0.999811 0.00384301 0)
(1.00098 -0.00474865 0)
(0.996084 0.00390068 0)
(1.00064 0.000954451 0)
(1.00123 -0.00144196 0)
(0.99737 0.00174871 0)
(0.998897 0.000198024 0)
(0.999894 0.000689937 0)
(0.998434 0.00167516 0)
(0.99832 0.000776713 0)
(0.998727 0.00107623 0)
(0.998225 0.00205507 0)
(0.997697 0.00225019 0)
(0.997738 0.00261716 0)
(0.997965 0.00355049 0)
(0.998051 0.0043311 0)
(0.998108 0.00477739 0)
(0.99832 0.00529804 0)
(1.00039 -0.00300982 0)
(0.995783 0.000696007 0)
(0.99964 0.00379488 0)
(1.00102 -0.00443602 0)
(0.996298 0.00347157 0)
(1.00043 0.00124812 0)
(1.00127 -0.00158085 0)
(0.997455 0.00177017 0)
(0.998835 0.000406489 0)
(0.999984 0.000456879 0)
(0.998449 0.00175462 0)
(0.998273 0.000971707 0)
(0.998826 0.00098666 0)
(0.998335 0.00208718 0)
(0.997745 0.00244455 0)
(0.997857 0.00262757 0)
(0.998154 0.00343712 0)
(0.998201 0.0043237 0)
(0.998222 0.00479141 0)
(0.998462 0.0051666 0)
(1.00038 -0.00277923 0)
(0.996036 0.000462039 0)
(0.999481 0.00372589 0)
(1.00104 -0.00410598 0)
(0.996524 0.0030391 0)
(1.00021 0.00152417 0)
(1.00131 -0.00167438 0)
(0.997562 0.00172611 0)
(0.998756 0.000650352 0)
(1.00007 0.000256301 0)
(0.998493 0.00176627 0)
(0.998213 0.00120796 0)
(0.998912 0.000933028 0)
(0.998473 0.00205284 0)
(0.997798 0.00263023 0)
(0.997946 0.00269361 0)
(0.998344 0.00330647 0)
(0.998377 0.00425123 0)
(0.998331 0.00480238 0)
(0.998574 0.00507928 0)
(1.00037 -0.00255264 0)
(0.996292 0.000244033 0)
(0.999335 0.00363508 0)
(1.00104 -0.00376074 0)
(0.996761 0.0026093 0)
(1 0.00177321 0)
(1.00133 -0.00171715 0)
(0.997692 0.00161832 0)
(0.998666 0.000915865 0)
(1.00014 0.000107654 0)
(0.998571 0.00170893 0)
(0.998147 0.00145824 0)
(0.998976 0.000930694 0)
(0.998639 0.00196022 0)
(0.997868 0.00277548 0)
(0.998005 0.002812 0)
(0.998521 0.00319105 0)
(0.998578 0.00411696 0)
(0.998449 0.00478416 0)
(0.998658 0.00503019 0)
(1.00036 -0.00233138 0)
(0.996549 4.4262e-05 0)
(0.999203 0.00352212 0)
(1.00103 -0.00340428 0)
(0.997006 0.00219234 0)
(0.999801 0.0019808 0)
(1.00133 -0.00169586 0)
(0.997847 0.00146063 0)
(0.99857 0.00118078 0)
(1.00019 2.10302e-05 0)
(0.998681 0.0015918 0)
(0.998086 0.00169972 0)
(0.99901 0.00099168 0)
(0.998822 0.00183218 0)
(0.997968 0.00285692 0)
(0.998041 0.00296551 0)
(0.998668 0.00311845 0)
(0.998799 0.00393693 0)
(0.998592 0.00471477 0)
(0.998725 0.00500133 0)
(1.00035 -0.00211662 0)
(0.996805 -0.000135442 0)
(0.999087 0.00338694 0)
(1.001 -0.00303877 0)
(0.997257 0.00179084 0)
(0.99961 0.00214779 0)
(1.00131 -0.00161623 0)
(0.998023 0.00126594 0)
(0.998476 0.00142476 0)
(1.00021 -6.72462e-06 0)
(0.998821 0.00142237 0)
(0.99804 0.00190679 0)
(0.99901 0.00111695 0)
(0.99901 0.0016995 0)
(0.998106 0.00286454 0)
(0.998066 0.00312663 0)
(0.998774 0.00310508 0)
(0.999023 0.00373951 0)
(0.998768 0.00458371 0)
(0.998791 0.00496645 0)
(1.00033 -0.0019096 0)
(0.997058 -0.000293689 0)
(0.998988 0.003231 0)
(1.00096 -0.00267012 0)
(0.997512 0.00141338 0)
(0.999436 0.00226818 0)
(1.00127 -0.00148118 0)
(0.998217 0.00104119 0)
(0.998389 0.0016381 0)
(1.00021 3.44135e-05 0)
(0.998984 0.00122478 0)
(0.998022 0.00206074 0)
(0.998978 0.00129785 0)
(0.999189 0.00159066 0)
(0.998284 0.00280173 0)
(0.998096 0.0032637 0)
(0.998836 0.00315196 0)
(0.999232 0.00355928 0)
(0.998977 0.00439755 0)
(0.998877 0.00489989 0)
(1.00031 -0.00171146 0)
(0.997308 -0.000429161 0)
(0.998907 0.00305554 0)
(1.0009 -0.00230236 0)
(0.997767 0.00106558 0)
(0.999282 0.0023392 0)
(1.0012 -0.00129933 0)
(0.998425 0.000807832 0)
(0.99832 0.00180176 0)
(1.00017 0.000143393 0)
(0.999161 0.00102732 0)
(0.998041 0.00214947 0)
(0.998921 0.00151591 0)
(0.999345 0.00152616 0)
(0.998496 0.00268254 0)
(0.998149 0.00334915 0)
(0.998859 0.00324244 0)
(0.999408 0.00342374 0)
(0.999211 0.00417607 0)
(0.998996 0.00478233 0)
(1.00029 -0.00152326 0)
(0.997553 -0.000540976 0)
(0.998844 0.00286279 0)
(1.00083 -0.00194043 0)
(0.998019 0.000754029 0)
(0.999151 0.00235908 0)
(1.00111 -0.00107859 0)
(0.99864 0.000584826 0)
(0.998275 0.0019056 0)
(1.0001 0.000306399 0)
(0.99934 0.000849702 0)
(0.998101 0.00216638 0)
(0.998849 0.00174463 0)
(0.999464 0.00151733 0)
(0.998731 0.00253021 0)
(0.998238 0.00336766 0)
(0.998857 0.00334847 0)
(0.999536 0.00334628 0)
(0.99945 0.00394804 0)
(0.999157 0.00460971 0)
(1.00027 -0.00134589 0)
(0.99779 -0.000629036 0)
(0.998801 0.00265564 0)
(1.00075 -0.00159105 0)
(0.998263 0.000483874 0)
(0.999046 0.00232847 0)
(1.001 -0.000827028 0)
(0.998855 0.0003805 0)
(0.998258 0.00194839 0)
(0.999999 0.000509031 0)
(0.99951 0.00071093 0)
(0.998205 0.00211686 0)
(0.998776 0.00195815 0)
(0.999541 0.00156667 0)
(0.998974 0.00237293 0)
(0.99837 0.00331875 0)
(0.998849 0.00344132 0)
(0.999613 0.00332523 0)
(0.999672 0.00374342 0)
(0.999356 0.00439596 0)
(1.00025 -0.00118018 0)
(0.998018 -0.000693527 0)
(0.998776 0.00243763 0)
(1.00066 -0.00125933 0)
(0.998497 0.000256589 0)
(0.998969 0.00225531 0)
(1.00087 -0.000563022 0)
(0.999063 0.000209987 0)
(0.998275 0.00193321 0)
(0.999883 0.000730771 0)
(0.99966 0.000623057 0)
(0.998349 0.00201323 0)
(0.998716 0.0021328 0)
(0.999576 0.00166504 0)
(0.999209 0.0022346 0)
(0.998545 0.00321164 0)
(0.998853 0.00349731 0)
(0.999645 0.00334436 0)
(0.999861 0.00358134 0)
(0.999578 0.00416398 0)
(1.00023 -0.00102657 0)
(0.998236 -0.000735416 0)
(0.998771 0.00221318 0)
(1.00056 -0.000950123 0)
(0.998717 7.60477e-05 0)
(0.99892 0.00214151 0)
(1.00072 -0.000295969 0)
(0.999257 8.33287e-05 0)
(0.998326 0.00186449 0)
(0.999758 0.000951274 0)
(0.999781 0.000593129 0)
(0.998525 0.00187755 0)
(0.998682 0.00225575 0)
(0.999573 0.00179875 0)
(0.999418 0.00213456 0)
(0.998753 0.00306511 0)
(0.998885 0.00350289 0)
(0.999644 0.00338135 0)
(1 0.00346802 0)
(0.999803 0.00393923 0)
(1.00021 -0.000885631 0)
(0.998442 -0.000755581 0)
(0.998782 0.00198595 0)
(1.00046 -0.000667483 0)
(0.99892 -5.82457e-05 0)
(0.998899 0.00199519 0)
(1.00057 -3.89976e-05 0)
(0.999431 3.97029e-06 0)
(0.998409 0.00175367 0)
(0.999633 0.00115257 0)
(0.999868 0.000619679 0)
(0.998723 0.00173122 0)
(0.998683 0.00231974 0)
(0.999545 0.00194599 0)
(0.999591 0.00208058 0)
(0.998982 0.00290097 0)
(0.998954 0.0034538 0)
(0.999629 0.00341366 0)
(1.0001 0.00339784 0)
(1.00001 0.00374136 0)
(1.00019 -0.000757492 0)
(0.998634 -0.000755983 0)
(0.998811 0.0017604 0)
(1.00035 -0.000414875 0)
(0.999102 -0.000148814 0)
(0.998906 0.00182775 0)
(1.00042 0.00019559 0)
(0.999579 -2.77622e-05 0)
(0.998521 0.00161673 0)
(0.99952 0.00132046 0)
(0.999919 0.00069407 0)
(0.998929 0.00159195 0)
(0.998723 0.00232469 0)
(0.999504 0.00208359 0)
(0.999721 0.00207045 0)
(0.999216 0.00274096 0)
(0.999063 0.00335581 0)
(0.999617 0.00342307 0)
(1.00015 0.00335755 0)
(1.00018 0.00357984 0)
(1.00017 -0.000641952 0)
(0.998813 -0.000739415 0)
(0.998854 0.00154167 0)
(1.00025 -0.000195842 0)
(0.999263 -0.000197937 0)
(0.998936 0.00164804 0)
(1.00028 0.000402013 0)
(0.999701 -1.46003e-05 0)
(0.998656 0.00146646 0)
(0.999426 0.00144393 0)
(0.999939 0.000802675 0)
(0.999131 0.00147527 0)
(0.998803 0.00228086 0)
(0.999464 0.00219568 0)
(0.99981 0.00209635 0)
(0.999438 0.00260343 0)
(0.999208 0.00322321 0)
(0.999623 0.00339855 0)
(1.00017 0.00333118 0)
(1.00032 0.00345441 0)
(1.00015 -0.000538939 0)
(0.998977 -0.000707866 0)
(0.99891 0.00133263 0)
(1.00016 -1.10319e-05 0)
(0.999402 -0.000210879 0)
(0.998988 0.00146504 0)
(1.00014 0.00057507 0)
(0.999794 3.67858e-05 0)
(0.998805 0.00131667 0)
(0.999358 0.00152137 0)
(0.999932 0.000931526 0)
(0.999318 0.00139154 0)
(0.998916 0.00220241 0)
(0.999438 0.00227107 0)
(0.999862 0.00214332 0)
(0.999635 0.00249707 0)
(0.999376 0.00307292 0)
(0.999655 0.00333624 0)
(1.00017 0.00330302 0)
(1.00041 0.00335765 0)
(1.00013 -0.000447913 0)
(0.999126 -0.00066381 0)
(0.998976 0.00113708 0)
(1.00007 0.000139886 0)
(0.999518 -0.00019267 0)
(0.999056 0.00128571 0)
(1.00002 0.000712176 0)
(0.999859 0.000120078 0)
(0.998962 0.00118122 0)
(0.999319 0.0015558 0)
(0.999907 0.00106449 0)
(0.999483 0.00134316 0)
(0.999054 0.00210427 0)
(0.999433 0.00230533 0)
(0.99989 0.00219536 0)
(0.9998 0.00242282 0)
(0.999556 0.0029218 0)
(0.999719 0.00324043 0)
(1.00017 0.00326123 0)
(1.00047 0.00327913 0)
(1.00011 -0.000368422 0)
(0.999259 -0.000609657 0)
(0.99905 0.000958134 0)
(0.999991 0.000257921 0)
(0.999613 -0.000150825 0)
(0.999136 0.00111884 0)
(0.999912 0.000811634 0)
(0.999901 0.000223064 0)
(0.999118 0.0010671 0)
(0.999311 0.00155235 0)
(0.999873 0.00118728 0)
(0.99962 0.00132758 0)
(0.999207 0.00200112 0)
(0.999456 0.00230072 0)
(0.999903 0.00223926 0)
(0.999931 0.00237531 0)
(0.999734 0.00278245 0)
(0.999809 0.00312066 0)
(1.00019 0.00319889 0)
(1.00051 0.00320782 0)
(1.0001 -0.000299651 0)
(0.999378 -0.000548674 0)
(0.99913 0.000797573 0)
(0.999923 0.000345286 0)
(0.999688 -9.30856e-05 0)
(0.999225 0.000970788 0)
(0.99983 0.000874067 0)
(0.999921 0.000333461 0)
(0.999267 0.000978329 0)
(0.999331 0.00151987 0)
(0.999838 0.00129017 0)
(0.999729 0.00133839 0)
(0.999364 0.00190455 0)
(0.999505 0.00226378 0)
(0.999913 0.0022656 0)
(1.00003 0.00234556 0)
(0.999898 0.00266163 0)
(0.99992 0.00298862 0)
(1.00021 0.00311471 0)
(1.00053 0.0031344 0)
(1.00008 -0.000240546 0)
(0.999482 -0.000484008 0)
(0.999213 0.000656974 0)
(0.999867 0.000405418 0)
(0.999745 -2.38855e-05 0)
(0.999316 0.000844147 0)
(0.99977 0.000905198 0)
(0.999928 0.00044365 0)
(0.999403 0.00091701 0)
(0.999376 0.00146869 0)
(0.99981 0.00136751 0)
(0.999812 0.00136644 0)
(0.999517 0.00182182 0)
(0.999577 0.00220355 0)
(0.999928 0.00226945 0)
(1.0001 0.0023238 0)
(1.00004 0.00256055 0)
(1.00004 0.00285501 0)
(1.00026 0.00301215 0)
(1.00055 0.00305265 0)
(1.00007 -0.000190309 0)
(0.999572 -0.000417797 0)
(0.999297 0.000536996 0)
(0.999825 0.000442322 0)
(0.999787 5.03011e-05 0)
(0.999406 0.000740617 0)
(0.999731 0.000911615 0)
(0.999924 0.000545877 0)
(0.999525 0.000880716 0)
(0.99944 0.0014078 0)
(0.999794 0.00141734 0)
(0.999875 0.0014019 0)
(0.999658 0.00175588 0)
(0.999667 0.00212971 0)
(0.999953 0.00225017 0)
(1.00016 0.00230147 0)
(1.00016 0.00247635 0)
(1.00016 0.00272745 0)
(1.00033 0.0028974 0)
(1.00058 0.00296 0)
(1.00006 -0.00014803 0)
(0.999649 -0.000351911 0)
(0.99938 0.000437445 0)
(0.999794 0.000460056 0)
(0.999817 0.000123093 0)
(0.999493 0.00065999 0)
(0.999713 0.000899626 0)
(0.999916 0.000634571 0)
(0.999629 0.000865273 0)
(0.999516 0.00134499 0)
(0.999794 0.00144121 0)
(0.999923 0.00143613 0)
(0.999783 0.00170598 0)
(0.999767 0.00205076 0)
(0.999992 0.00221033 0)
(1.00021 0.00227232 0)
(1.00026 0.00240391 0)
(1.00028 0.0026098 0)
(1.0004 0.00277711 0)
(1.00061 0.00285706 0)
(1.00004 -0.000112646 0)
(0.999714 -0.000288307 0)
(0.999459 0.000357141 0)
(0.999776 0.000462771 0)
(0.999839 0.000190745 0)
(0.999573 0.000600662 0)
(0.999712 0.000875357 0)
(0.999908 0.000706624 0)
(0.999717 0.000865294 0)
(0.999599 0.00128583 0)
(0.999808 0.00144289 0)
(0.999961 0.00146261 0)
(0.999892 0.00166874 0)
(0.999871 0.00197288 0)
(1.00004 0.00215453 0)
(1.00025 0.00223285 0)
(1.00035 0.0023376 0)
(1.00038 0.00250268 0)
(1.00048 0.00265678 0)
(1.00066 0.00274655 0)
(1.00004 -8.31921e-05 0)
(0.999769 -0.000228491 0)
(0.999534 0.00029442 0)
(0.999769 0.000454638 0)
(0.999854 0.000250636 0)
(0.999646 0.000559858 0)
(0.999725 0.000844191 0)
(0.999904 0.000760957 0)
(0.999791 0.000874981 0)
(0.999685 0.00123354 0)
(0.999837 0.00142732 0)
(0.999996 0.00147739 0)
(0.999984 0.0016395 0)
(0.999973 0.00189958 0)
(1.00011 0.00208791 0)
(1.00029 0.0021821 0)
(1.00041 0.00227256 0)
(1.00047 0.00240447 0)
(1.00056 0.00253994 0)
(1.00071 0.00263196 0)
(1.00003 -5.88364e-05 0)
(0.999815 -0.000173407 0)
(0.999604 0.000247431 0)
(0.999771 0.000439437 0)
(0.999866 0.000301115 0)
(0.99971 0.000534118 0)
(0.99975 0.000810441 0)
(0.999905 0.000798147 0)
(0.999852 0.000888918 0)
(0.999768 0.0011893 0)
(0.999878 0.0013996 0)
(1.00003 0.00147888 0)
(1.00006 0.00161349 0)
(1.00007 0.00183199 0)
(1.00017 0.0020152 0)
(1.00034 0.00212105 0)
(1.00047 0.00220533 0)
(1.00055 0.00231247 0)
(1.00064 0.00242809 0)
(1.00076 0.00251643 0)
(1.00002 -3.87665e-05 0)
(0.999852 -0.000123675 0)
(0.999667 0.000213915 0)
(0.999781 0.000420243 0)
(0.999876 0.000341488 0)
(0.999767 0.000519736 0)
(0.999782 0.000777217 0)
(0.999912 0.000819953 0)
(0.999904 0.000902599 0)
(0.999847 0.0011526 0)
(0.999928 0.00136424 0)
(1.00007 0.00146735 0)
(1.00013 0.00158671 0)
(1.00016 0.00176954 0)
(1.00025 0.00193997 0)
(1.00039 0.00205176 0)
(1.00052 0.00213405 0)
(1.00062 0.00222392 0)
(1.0007 0.00232121 0)
(1.00082 0.00240213 0)
(1.00002 -2.2273e-05 0)
(0.999883 -7.95904e-05 0)
(0.999724 0.000191554 0)
(0.999797 0.00039956 0)
(0.999886 0.000371944 0)
(0.999817 0.000513131 0)
(0.999819 0.000746435 0)
(0.999927 0.000828797 0)
(0.999949 0.00091271 0)
(0.99992 0.00112182 0)
(0.999983 0.00132468 0)
(1.00011 0.00144429 0)
(1.00019 0.00155631 0)
(1.00024 0.00171064 0)
(1.00032 0.00186452 0)
(1.00045 0.00197665 0)
(1.00057 0.0020582 0)
(1.00068 0.00213652 0)
(1.00077 0.00221838 0)
(1.00087 0.00229022 0)
(1.00001 -8.72613e-06 0)
(0.999908 -4.12351e-05 0)
(0.999775 0.000178005 0)
(0.999818 0.000379183 0)
(0.999898 0.000393246 0)
(0.99986 0.000511087 0)
(0.999859 0.000718929 0)
(0.999947 0.000827286 0)
(0.99999 0.000917164 0)
(0.999986 0.00109481 0)
(1.00004 0.00128318 0)
(1.00015 0.00141179 0)
(1.00024 0.00152068 0)
(1.00031 0.0016534 0)