/*--------------------------------*- C++ -*----------------------------------*\
| =========                 |                                                 |
| \\      /  F ield         | OpenFOAM: The Open Source CFD Toolbox           |
|  \\    /   O peration     | Version:  v2012                                 |
|   \\  /    A nd           | Website:  www.openfoam.com                      |
|    \\/     M anipulation  |                                                 |
\*---------------------------------------------------------------------------*/
FoamFile
{
    version     2.0;
    format      ascii;
    class       surfaceScalarField;
    location    "2.55";
    object      phi;
}
// * * * * * * * * * * * * * * * * * * * * * * * * * * * * * * * * * * * * * //

dimensions      [0 3 -1 0 0 0 0];
oriented        oriented;


internalField   nonuniform List<scalar> 
34900
(
1.18355e-06
4.72902e-07
1.15485e-06
-4.22844e-08
1.15781e-06
-2.04693e-07
1.14971e-06
6.4598e-08
1.15489e-06
2.50351e-08
1.14417e-06
-6.08318e-08
1.15034e-06
3.02586e-08
1.14349e-06
-2.15674e-08
1.14984e-06
4.50252e-08
1.14284e-06
-1.04853e-08
1.14942e-06
4.03787e-08
1.1416e-06
-9.39369e-09
1.14868e-06
4.4576e-08
1.13894e-06
-2.20462e-08
1.14684e-06
4.8335e-08
1.13397e-06
-4.44711e-08
1.14307e-06
6.39481e-08
1.12554e-06
-6.84285e-08
1.13272e-06
8.98861e-08
-6.96789e-08
1.0855e-06
1.23527e-06
4.61896e-07
1.20983e-06
-1.68513e-08
1.21126e-06
-2.0612e-07
1.20568e-06
7.01761e-08
1.20885e-06
2.18629e-08
1.20015e-06
-5.21309e-08
1.20352e-06
2.68919e-08
1.20045e-06
-1.84955e-08
1.20269e-06
4.27827e-08
1.20079e-06
-8.58801e-09
1.20179e-06
3.93866e-08
1.20122e-06
-8.82925e-09
1.20005e-06
4.5752e-08
1.20093e-06
-2.29294e-08
1.19636e-06
5.29027e-08
1.19929e-06
-4.73972e-08
1.1893e-06
7.39321e-08
1.19478e-06
-7.39075e-08
1.17431e-06
1.10355e-07
-6.50649e-08
1.1697e-06
1.28824e-06
4.56435e-07
1.26931e-06
2.08692e-09
1.26585e-06
-2.02665e-07
1.26517e-06
7.08613e-08
1.2641e-06
2.2933e-08
1.26069e-06
-4.87247e-08
1.25859e-06
2.89884e-08
1.26127e-06
-2.1171e-08
1.2578e-06
4.62507e-08
1.2623e-06
-1.30898e-08
1.25734e-06
4.43521e-08
1.26322e-06
-1.47127e-08
1.25652e-06
5.24567e-08
1.26283e-06
-2.92412e-08
1.25487e-06
6.08635e-08
1.26007e-06
-5.26039e-08
1.25224e-06
8.17674e-08
1.25321e-06
-7.48784e-08
1.2461e-06
1.17461e-07
-4.64495e-08
1.22749e-06
1.34371e-06
4.56833e-07
1.33413e-06
1.16582e-08
1.32386e-06
-1.92387e-07
1.32728e-06
6.74346e-08
1.32254e-06
2.76703e-08
1.32397e-06
-5.0148e-08
1.31759e-06
3.53669e-08
1.3238e-06
-2.73778e-08
1.3176e-06
5.24463e-08
1.32451e-06
-1.99987e-08
1.31866e-06
5.02018e-08
1.32504e-06
-2.10927e-08
1.31984e-06
5.76604e-08
1.32441e-06
-3.38157e-08
1.32046e-06
6.48176e-08
1.32188e-06
-5.40268e-08
1.31997e-06
8.3679e-08
1.31574e-06
-7.06538e-08
1.31503e-06
1.18171e-07
-2.4814e-08
1.2934e-06
1.4032e-06
4.61988e-07
1.40312e-06
1.17355e-08
1.38693e-06
-1.762e-07
1.39204e-06
6.23285e-08
1.38605e-06
3.36589e-08
1.38972e-06
-5.38138e-08
1.38227e-06
4.28161e-08
1.38845e-06
-3.35629e-08
1.38327e-06
5.763e-08
1.38895e-06
-2.56832e-08
1.38565e-06
5.3509e-08
1.38985e-06
-2.5297e-08
1.38797e-06
5.95456e-08
1.39013e-06
-3.59797e-08
1.38929e-06
6.56598e-08
1.38867e-06
-5.34073e-08
1.38901e-06
8.33388e-08
1.38293e-06
-6.45782e-08
1.38394e-06
1.17164e-07
-3.23257e-09
1.36236e-06
1.468e-06
4.69663e-07
1.47488e-06
4.85215e-09
1.45599e-06
-1.57306e-07
1.46037e-06
5.79526e-08
1.45561e-06
3.84211e-08
1.45906e-06
-5.72701e-08
1.45311e-06
4.87677e-08
1.4573e-06
-3.77577e-08
1.45451e-06
6.04278e-08
1.45808e-06
-2.92599e-08
1.45727e-06
5.43257e-08
1.45977e-06
-2.78022e-08
1.45984e-06
5.94744e-08
1.46092e-06
-3.70568e-08
1.46132e-06
6.52558e-08
1.45991e-06
-5.19929e-08
1.46118e-06
8.20699e-08
1.45379e-06
-5.71897e-08
1.4561e-06
1.14854e-07
1.82274e-08
1.43464e-06
1.53864e-06
4.77236e-07
1.54884e-06
-5.3428e-09
1.53079e-06
-1.39262e-07
1.53336e-06
5.53909e-08
1.53082e-06
4.096e-08
1.53305e-06
-5.94986e-08
1.52928e-06
5.25281e-08
1.5315e-06
-3.9973e-08
1.53046e-06
6.14719e-08
1.53256e-06
-3.13684e-08
1.53299e-06
5.39022e-08
1.53471e-06
-2.95196e-08
1.53554e-06
5.86385e-08
1.53614e-06
-3.76532e-08
1.53713e-06
6.42623e-08
1.535e-06
-4.98646e-08
1.53709e-06
7.99838e-08
1.52828e-06
-4.83837e-08
1.53173e-06
1.11409e-07
3.92268e-08
1.51073e-06
1.6147e-06
4.82668e-07
1.62509e-06
-1.57396e-08
1.61013e-06
-1.243e-07
1.61125e-06
5.42761e-08
1.61046e-06
4.17485e-08
1.61163e-06
-6.06684e-08
1.60955e-06
5.46079e-08
1.61061e-06
-4.1033e-08
1.61034e-06
6.17414e-08
1.61166e-06
-3.26854e-08
1.61247e-06
5.3086e-08
1.61378e-06
-3.08241e-08
1.61492e-06
5.74941e-08
1.61505e-06
-3.77874e-08
1.61653e-06
6.27907e-08
1.61351e-06
-4.68517e-08
1.6164e-06
7.70958e-08
1.60622e-06
-3.81978e-08
1.61043e-06
1.07198e-07
5.92252e-08
1.59043e-06
1.69519e-06
4.85053e-07
1.70403e-06
-2.45824e-08
1.69265e-06
-1.12919e-07
1.69333e-06
5.35952e-08
1.69334e-06
4.1739e-08
1.69398e-06
-6.13066e-08
1.69289e-06
5.56952e-08
1.6935e-06
-4.16371e-08
1.69347e-06
6.17651e-08
1.69432e-06
-3.35338e-08
1.69523e-06
5.21798e-08
1.69615e-06
-3.17477e-08
1.69752e-06
5.61301e-08
1.69706e-06
-3.733e-08
1.69904e-06
6.08132e-08
1.695e-06
-4.28186e-08
1.69864e-06
7.34549e-08
1.68726e-06
-2.68144e-08
1.69181e-06
1.02649e-07
7.76771e-08
1.67336e-06
1.77928e-06
4.84496e-07
1.78607e-06
-3.137e-08
1.77763e-06
-1.04485e-07
1.77868e-06
5.25447e-08
1.77883e-06
4.15915e-08
1.77931e-06
-6.17899e-08
1.77878e-06
5.62265e-08
1.77928e-06
-4.21339e-08
1.77938e-06
6.16663e-08
1.77987e-06
-3.4027e-08
1.78085e-06
5.12e-08
1.78133e-06
-3.22299e-08
1.78297e-06
5.44932e-08
1.7818e-06
-3.61589e-08
1.78435e-06
5.82603e-08
1.77925e-06
-3.77148e-08
1.78353e-06
6.91694e-08
1.77128e-06
-1.45573e-08
1.77569e-06
9.82404e-08
9.4083e-08
1.75928e-06
1.86663e-06
4.81613e-07
1.87158e-06
-3.63151e-08
1.86514e-06
-9.8045e-08
1.86683e-06
5.08499e-08
1.86689e-06
4.15304e-08
1.86737e-06
-6.22695e-08
1.86719e-06
5.64077e-08
1.86769e-06
-4.26284e-08
1.86796e-06
6.13913e-08
1.86813e-06
-3.42017e-08
1.86929e-06
5.00496e-08
1.86926e-06
-3.22049e-08
1.87128e-06
5.24752e-08
1.86931e-06
-3.41937e-08
1.8725e-06
5.5073e-08
1.86638e-06
-3.15974e-08
1.87111e-06
6.4443e-08
1.85843e-06
-1.87292e-09
1.86219e-06
9.4473e-08
1.08053e-07
1.84822e-06
1.95739e-06
4.77064e-07
1.96091e-06
-3.984e-08
1.95568e-06
-9.28151e-08
1.95791e-06
4.86247e-08
1.95791e-06
4.15258e-08
1.9584e-06
-6.27599e-08
1.95849e-06
5.63202e-08
1.95896e-06
-4.31029e-08
1.95951e-06
6.08414e-08
1.95937e-06
-3.40544e-08
1.96082e-06
4.85964e-08
1.96023e-06
-3.16146e-08
1.96275e-06
4.99583e-08
1.95996e-06
-3.14035e-08
1.96378e-06
5.12475e-08
1.95682e-06
-2.46331e-08
1.96168e-06
5.95766e-08
1.94907e-06
1.07372e-08
1.95176e-06
9.17831e-08
1.19393e-07
1.94042e-06
2.05192e-06
4.71337e-07
2.05438e-06
-4.23036e-08
2.04989e-06
-8.83264e-08
2.0524e-06
4.61184e-08
2.05246e-06
4.14681e-08
2.05291e-06
-6.32115e-08
2.05325e-06
5.59783e-08
2.05363e-06
-4.3482e-08
2.05455e-06
5.99153e-08
2.05404e-06
-3.35447e-08
2.05593e-06
4.67064e-08
2.05473e-06
-3.0406e-08
2.05784e-06
4.68462e-08
2.05424e-06
-2.78101e-08
2.05863e-06
4.68624e-08
2.05109e-06
-1.70896e-08
2.05572e-06
5.49399e-08
2.04366e-06
2.28007e-08
2.04498e-06
9.04604e-08
1.28148e-07
2.03623e-06
2.15062e-06
4.64721e-07
2.15224e-06
-4.39284e-08
2.14829e-06
-8.43735e-08
2.15084e-06
4.3565e-08
2.15107e-06
4.12411e-08
2.1514e-06
-6.35451e-08
2.15203e-06
5.53505e-08
2.15221e-06
-4.36608e-08
2.15361e-06
5.85142e-08
2.15267e-06
-3.26036e-08
2.15512e-06
4.4261e-08
2.15325e-06
-2.85392e-08
2.15701e-06
4.30889e-08
2.1527e-06
-2.35011e-08
2.15747e-06
4.20868e-08
2.14969e-06
-9.30328e-09
2.15369e-06
5.09341e-08
2.14258e-06
3.39095e-08
2.14242e-06
9.06283e-08
1.34572e-07
2.13599e-06
2.25384e-06
4.57366e-07
2.25473e-06
-4.48203e-08
2.25128e-06
-8.09166e-08
2.2537e-06
4.11469e-08
2.2542e-06
4.07328e-08
2.25432e-06
-6.36651e-08
2.2553e-06
5.43723e-08
2.25516e-06
-4.35212e-08
2.25714e-06
5.65414e-08
2.25568e-06
-3.11508e-08
2.25877e-06
4.11693e-08
2.25624e-06
-2.60043e-08
2.26063e-06
3.87032e-08
2.25577e-06
-1.86425e-08
2.26068e-06
3.71707e-08
2.25301e-06
-1.63525e-09
2.25603e-06
4.79228e-08
2.24616e-06
4.37706e-08
2.24455e-06
9.22407e-08
1.39072e-07
2.24005e-06
2.36189e-06
4.49347e-07
2.36208e-06
-4.50097e-08
2.35917e-06
-7.80021e-08
2.36131e-06
3.90102e-08
2.36221e-06
3.98292e-08
2.36201e-06
-6.34678e-08
2.36343e-06
5.29567e-08
2.36285e-06
-4.29428e-08
2.36548e-06
5.39069e-08
2.36345e-06
-2.91149e-08
2.36724e-06
3.73823e-08
2.36407e-06
-2.28435e-08
2.36899e-06
3.3789e-08
2.36383e-06
-1.34845e-08
2.36858e-06
3.24263e-08
2.36137e-06
5.57458e-09
2.36312e-06
4.61649e-08
2.35464e-06
5.22567e-08
2.35179e-06
9.50844e-08
1.42141e-07
2.34872e-06
2.47505e-06
4.40692e-07
2.47452e-06
-4.44823e-08
2.47224e-06
-7.57159e-08
2.47396e-06
3.72855e-08
2.47538e-06
3.84121e-08
2.47476e-06
-6.28448e-08
2.47671e-06
5.10049e-08
2.47558e-06
-4.18134e-08
2.47895e-06
5.05362e-08
2.47629e-06
-2.64549e-08
2.48076e-06
3.29087e-08
2.47709e-06
-1.91722e-08
2.48234e-06
2.85364e-08
2.4772e-06
-8.34273e-09
2.48146e-06
2.81694e-08
2.47496e-06
1.20733e-08
2.47536e-06
4.57675e-08
2.46819e-06
5.94288e-08
2.46447e-06
9.88029e-08
1.44288e-07
2.46232e-06
2.59358e-06
4.31408e-07
2.59229e-06
-4.31959e-08
2.59074e-06
-7.41628e-08
2.59193e-06
3.60974e-08
2.59398e-06
3.63605e-08
2.59282e-06
-6.16883e-08
2.59541e-06
4.84184e-08
2.59364e-06
-4.00411e-08
2.59779e-06
4.63847e-08
2.59451e-06
-2.3181e-08
2.59959e-06
2.78318e-08
2.59561e-06
-1.51885e-08
2.60094e-06
2.32075e-08
2.59615e-06
-3.55533e-09
2.59963e-06
2.46857e-08
2.594e-06
1.7703e-08
2.5931e-06
4.66745e-08
2.58701e-06
6.55137e-08
2.58284e-06
1.02968e-07
1.45964e-07
2.58117e-06
2.71775e-06
4.21487e-07
2.71564e-06
-4.10895e-08
2.71494e-06
-7.3458e-08
2.71547e-06
3.55663e-08
2.71827e-06
3.35566e-08
2.71648e-06
-5.98983e-08
2.71979e-06
4.51125e-08
2.71732e-06
-3.7569e-08
2.72225e-06
4.14546e-08
2.71844e-06
-1.93756e-08
2.72395e-06
2.23223e-08
2.71993e-06
-1.11715e-08
2.72504e-06
1.81051e-08
2.72091e-06
5.73256e-10
2.72343e-06
2.21649e-08
2.71869e-06
2.24469e-08
2.71668e-06
4.86841e-08
2.71136e-06
7.08248e-08
2.70715e-06
1.07183e-07
1.475e-07
2.70561e-06
2.84784e-06
4.10911e-07
2.84484e-06
-3.80891e-08
2.84511e-06
-7.37231e-08
2.84487e-06
3.58062e-08
2.84853e-06
2.98915e-08
2.84603e-06
-5.73925e-08
2.85011e-06
4.10308e-08
2.84693e-06
-3.43906e-08
2.85257e-06
3.58142e-08
2.84841e-06
-1.52096e-08
2.85408e-06
1.66437e-08
2.85038e-06
-7.46661e-09
2.85495e-06
1.35366e-08
2.8517e-06
3.81745e-09
2.85322e-06
2.0653e-08
2.84922e-06
2.6441e-08
2.84639e-06
5.15199e-08
2.84155e-06
7.56613e-08
2.83758e-06
1.11152e-07
1.49079e-07
2.836e-06
2.98415e-06
3.99659e-07
2.98017e-06
-3.41117e-08
2.98153e-06
-7.50841e-08
2.98042e-06
3.69211e-08
2.98504e-06
2.52731e-08
2.98176e-06
-5.41197e-08
2.98663e-06
3.61649e-08
2.98281e-06
-3.05704e-08
2.98901e-06
2.9617e-08
2.98475e-06
-1.09518e-08
2.99025e-06
1.11391e-08
2.98723e-06
-4.4449e-09
2.99101e-06
9.75611e-09
2.98875e-06
6.08253e-09
2.98936e-06
2.00347e-08
2.98589e-06
2.99118e-08
2.98249e-06
5.49272e-08
2.97788e-06
8.02711e-08
2.97434e-06
1.14684e-07
1.50774e-07
2.97265e-06
3.12696e-06
3.87707e-07
3.12191e-06
-2.90685e-08
3.1245e-06
-7.76668e-08
3.12242e-06
3.89975e-08
3.12806e-06
1.96384e-08
3.12401e-06
-5.00765e-08
3.1296e-06
3.05742e-08
3.1253e-06
-2.62627e-08
3.1318e-06
2.31144e-08
3.12781e-06
-6.96068e-09
3.13275e-06
6.19861e-09
3.13076e-06
-2.46062e-09
3.13357e-06
6.94758e-09
3.13229e-06
7.3644e-09
3.1322e-06
2.01205e-08
3.12911e-06
3.30098e-08
3.12526e-06
5.87725e-08
3.12059e-06
8.49438e-08
3.1177e-06
1.17568e-07
1.52679e-07
3.1158e-06
3.27658e-06
3.75035e-07
3.27038e-06
-2.28706e-08
3.27431e-06
-8.15889e-08
3.27121e-06
4.20909e-08
3.27788e-06
1.29717e-08
3.27313e-06
-4.5332e-08
3.27929e-06
2.44135e-08
3.27477e-06
-2.1734e-08
3.28122e-06
1.66602e-08
3.27792e-06
-3.65717e-09
3.28192e-06
2.20028e-09
3.28122e-06
-1.76708e-09
3.28299e-06
5.18365e-09
3.28266e-06
7.69261e-09
3.28204e-06
2.07416e-08
3.27945e-06
3.55988e-08
3.27514e-06
6.30788e-08
3.26986e-06
9.02237e-08
3.26774e-06
1.1969e-07
1.54794e-07
3.26562e-06
3.43334e-06
3.61629e-07
3.4259e-06
-1.54345e-08
3.43126e-06
-8.69483e-08
3.42714e-06
4.62094e-08
3.43479e-06
5.32784e-09
3.42951e-06
-4.0055e-08
3.43597e-06
1.79554e-08
3.4316e-06
-1.73653e-08
3.43758e-06
1.06766e-08
3.43536e-06
-1.43414e-09
3.43819e-06
-6.30405e-10
3.43877e-06
-2.34549e-09
3.43969e-06
4.26364e-09
3.44011e-06
7.2716e-09
3.43927e-06
2.15829e-08
3.43775e-06
3.71162e-08
3.43328e-06
6.7547e-08
3.42646e-06
9.70456e-08
3.42322e-06
1.22927e-07
1.55393e-07
3.42263e-06
3.59756e-06
3.47478e-07
3.58881e-06
-6.68608e-09
3.59568e-06
-9.38169e-08
3.59059e-06
5.13065e-08
3.59908e-06
-3.17137e-09
3.59351e-06
-3.44824e-08
3.59996e-06
1.15067e-08
3.59609e-06
-1.34972e-08
3.60135e-06
5.41952e-09
3.60024e-06
-3.28792e-10
3.60224e-06
-2.6273e-09
3.60335e-06
-3.45761e-09
3.60444e-06
3.17571e-09
3.60467e-06
7.03841e-09
3.60476e-06
2.15007e-08
3.60487e-06
3.70071e-08
3.60516e-06
6.72539e-08
3.60092e-06
1.01284e-07
3.5852e-06
1.38648e-07
1.5081e-07
3.58978e-06
3.7696e-06
3.32584e-07
3.75949e-06
3.42336e-09
3.76788e-06
-1.02212e-07
3.76194e-06
5.72465e-08
3.77107e-06
-1.22941e-08
3.76557e-06
-2.8982e-08
3.77158e-06
5.49767e-09
3.76863e-06
-1.05514e-08
3.77292e-06
1.1256e-09
3.77279e-06
-1.99151e-10
3.77454e-06
-4.37452e-09
3.77529e-06
-4.20281e-09
3.77755e-06
9.1369e-10
3.77694e-06
7.648e-09
3.77914e-06
1.9305e-08
3.77981e-06
3.63348e-08
3.78178e-06
6.52779e-08
3.78799e-06
9.50764e-08
3.80157e-06
1.25066e-07
1.77798e-07
3.77458e-06
3.94981e-06
3.16967e-07
3.93834e-06
1.48865e-08
3.94817e-06
-1.12044e-07
3.94168e-06
6.3743e-08
3.95101e-06
-2.16218e-08
3.94619e-06
-2.4163e-08
3.95106e-06
6.24626e-10
3.94973e-06
-9.22555e-09
3.95251e-06
-1.65155e-09
3.95369e-06
-1.38244e-09
3.95489e-06
-5.57156e-09
3.95575e-06
-5.06375e-09
3.95834e-06
-1.67128e-09
3.95821e-06
7.77551e-09
3.95704e-06
2.04767e-08
3.94948e-06
4.38968e-08
3.94458e-06
7.01765e-08
3.93836e-06
1.01293e-07
3.92791e-06
1.35518e-07
1.67568e-07
3.93814e-06
4.13856e-06
3.00658e-07
4.1258e-06
2.76436e-08
4.13688e-06
-1.23121e-07
4.13022e-06
7.03979e-08
4.13926e-06
-3.06583e-08
4.13575e-06
-2.06521e-08
4.13892e-06
-2.54781e-09
4.1396e-06
-9.9018e-09
4.14073e-06
-2.78455e-09
4.14312e-06
-3.76651e-09
4.1437e-06
-6.15294e-09
4.14494e-06
-6.3064e-09
4.14527e-06
-2.00261e-09
4.14159e-06
1.14529e-08
4.1345e-06
2.75738e-08
4.13059e-06
4.78043e-08
4.12573e-06
7.50379e-08
4.12042e-06
1.066e-07
4.11677e-06
1.39166e-07
1.63768e-07
4.12057e-06
4.33625e-06
2.83713e-07
4.32233e-06
4.15636e-08
4.33433e-06
-1.35124e-07
4.32803e-06
7.6695e-08
4.33624e-06
-3.88687e-08
4.33458e-06
-1.89904e-08
4.33579e-06
-3.75339e-09
4.33832e-06
-1.24384e-08
4.33836e-06
-2.81979e-09
4.34096e-06
-6.36797e-09
4.34127e-06
-6.45634e-09
4.33975e-06
-4.79307e-09
4.33584e-06
1.90797e-09
4.33176e-06
1.55327e-08
4.32642e-06
3.2915e-08
4.32203e-06
5.21919e-08
4.31787e-06
7.91978e-08
4.31435e-06
1.10119e-07
4.31339e-06
1.40133e-07
1.62078e-07
4.31508e-06
4.54328e-06
2.6621e-07
4.52843e-06
5.64136e-08
4.54085e-06
-1.47549e-07
4.5356e-06
8.1946e-08
4.54236e-06
-4.56281e-08
4.54309e-06
-1.97177e-08
4.54223e-06
-2.89217e-09
4.54618e-06
-1.63953e-08
4.5458e-06
-2.43855e-09
4.54694e-06
-7.50769e-09
4.54575e-06
-5.2676e-09
4.54094e-06
1.87067e-11
4.53693e-06
5.92266e-09
4.53304e-06
1.94198e-08
4.52844e-06
3.75127e-08
4.52364e-06
5.6988e-08
4.52011e-06
8.27282e-08
4.51795e-06
1.1228e-07
4.51854e-06
1.39551e-07
1.6115e-07
4.51946e-06
4.76007e-06
2.48253e-07
4.74461e-06
7.18722e-08
4.75681e-06
-1.59749e-07
4.75335e-06
8.54058e-08
4.75814e-06
-5.0416e-08
4.76152e-06
-2.30941e-08
4.75889e-06
-2.60539e-10
4.76338e-06
-2.08867e-08
4.76288e-06
-1.93705e-09
4.76042e-06
-5.05119e-09
4.75799e-06
-2.83874e-09
4.75268e-06
5.32924e-09
4.74826e-06
1.03471e-08
4.7447e-06
2.2981e-08
4.74056e-06
4.16513e-08
4.73571e-06
6.18312e-08
4.73252e-06
8.59176e-08
4.73141e-06
1.13396e-07
4.73261e-06
1.38345e-07
1.59966e-07
4.7338e-06
4.98709e-06
2.29964e-07
4.97142e-06
8.75383e-08
4.98264e-06
-1.70972e-07
4.9817e-06
8.63498e-08
4.98421e-06
-5.29252e-08
4.99011e-06
-2.89953e-08
4.98633e-06
3.51987e-09
4.98991e-06
-2.44625e-08
4.98852e-06
-5.52365e-10
4.98266e-06
8.07218e-10
4.98022e-06
-3.98237e-10
4.97519e-06
1.03657e-08
4.97031e-06
1.52251e-08
4.96679e-06
2.6494e-08
4.96313e-06
4.53153e-08
4.95855e-06
6.64085e-08
4.95552e-06
8.89525e-08
4.95525e-06
1.13667e-07
4.95634e-06
1.37256e-07
1.57995e-07
4.95831e-06
5.2248e-06
2.11484e-07
5.2094e-06
1.02939e-07
5.21882e-06
-1.804e-07
5.22098e-06
8.41924e-08
5.22122e-06
-5.3165e-08
5.22913e-06
-3.69075e-08
5.22471e-06
7.94269e-09
5.22561e-06
-2.53659e-08
5.22306e-06
1.99781e-09
5.21577e-06
8.09632e-09
5.21303e-06
2.3493e-09
5.20887e-06
1.45255e-08
5.20351e-06
2.05779e-08
5.19978e-06
3.02252e-08
5.19656e-06
4.85394e-08
5.1925e-06
7.04648e-08
5.18971e-06
9.174e-08
5.18976e-06
1.13619e-07
5.19094e-06
1.36084e-07
1.55436e-07
5.19349e-06
5.47371e-06
1.92968e-07
5.45909e-06
1.1755e-07
5.46596e-06
-1.87268e-07
5.47145e-06
7.86995e-08
5.46975e-06
-5.14566e-08
5.47871e-06
-4.58709e-08
5.47353e-06
1.3125e-08
5.47067e-06
-2.25048e-08
5.46828e-06
4.37964e-09
5.46045e-06
1.59268e-08
5.45711e-06
5.6931e-09
5.45398e-06
1.76519e-08
5.4484e-06
2.61647e-08
5.44423e-06
3.43912e-08
5.44132e-06
5.14514e-08
5.43795e-06
7.38323e-08
5.4356e-06
9.40888e-08
5.43555e-06
1.13676e-07
5.43703e-06
1.34599e-07
1.52449e-07
5.44002e-06
5.73436e-06
1.74567e-07
5.72106e-06
1.30844e-07
5.72485e-06
-1.91057e-07
5.7333e-06
7.025e-08
5.73005e-06
-4.82067e-08
5.73842e-06
-5.42418e-08
5.73176e-06
1.97892e-08
5.72672e-06
-1.74699e-08
5.72515e-06
5.95078e-09
5.71744e-06
2.36366e-08
5.71313e-06
1.00116e-08
5.71086e-06
1.99183e-08
5.70546e-06
3.1564e-08
5.70076e-06
3.90896e-08
5.69798e-06
5.42349e-08
5.69536e-06
7.645e-08
5.69359e-06
9.58628e-08
5.69332e-06
1.1394e-07
5.69509e-06
1.32832e-07
1.49068e-07
5.69847e-06
6.00733e-06
1.5643e-07
5.99586e-06
1.42315e-07
5.99634e-06
-1.91534e-07
6.00678e-06
5.98078e-08
6.00191e-06
-4.33381e-08
6.00832e-06
-6.06493e-08
6.0014e-06
2.67025e-08
5.99496e-06
-1.10249e-08
5.99442e-06
6.48796e-09
5.98725e-06
3.08104e-08
5.98176e-06
1.5497e-08
5.97996e-06
2.17258e-08
5.97516e-06
3.63605e-08
5.97002e-06
4.42302e-08
5.96715e-06
5.71046e-08
5.96527e-06
7.83252e-08
5.9641e-06
9.70376e-08
5.96377e-06
1.14265e-07
5.96569e-06
1.30912e-07
1.45347e-07
5.96942e-06
6.29323e-06
1.38688e-07
6.28399e-06
1.51558e-07
6.28129e-06
-1.88839e-07
6.29232e-06
4.87763e-08
6.28538e-06
-3.63922e-08
6.29019e-06
-6.54612e-08
6.28425e-06
3.26438e-08
6.27635e-06
-3.12693e-09
6.27659e-06
6.25059e-09
6.27037e-06
3.7032e-08
6.2637e-06
2.21642e-08
6.26186e-06
2.35637e-08
6.25796e-06
4.02586e-08
6.25263e-06
4.95578e-08
6.24949e-06
6.02486e-08
6.24828e-06
7.9535e-08
6.24765e-06
9.76645e-08
6.24752e-06
1.14402e-07
6.2495e-06
1.28931e-07
1.41393e-07
6.25345e-06
6.59269e-06
1.21471e-07
6.58595e-06
1.58294e-07
6.58045e-06
-1.83341e-07
6.59093e-06
3.82962e-08
6.58207e-06
-2.75257e-08
6.58567e-06
-6.9067e-08
6.5811e-06
3.72179e-08
6.57172e-06
6.24987e-09
6.57218e-06
5.79101e-09
6.56728e-06
4.19294e-08
6.55963e-06
2.98154e-08
6.55727e-06
2.59217e-08
6.55436e-06
4.3168e-08
6.54921e-06
5.47079e-08
6.54571e-06
6.37558e-08
6.54498e-06
8.02643e-08
6.54486e-06
9.77782e-08
6.54513e-06
1.1414e-07
6.54716e-06
1.26895e-07
1.37326e-07
6.55123e-06
6.90637e-06
1.04893e-07
6.90223e-06
1.62434e-07
6.8945e-06
-1.75611e-07
6.90399e-06
2.88034e-08
6.89343e-06
-1.69669e-08
6.89539e-06
-7.10282e-08
6.89251e-06
4.00991e-08
6.88185e-06
1.69133e-08
6.88182e-06
5.82339e-09
6.8785e-06
4.52493e-08
6.87026e-06
3.80492e-08
6.86698e-06
2.92068e-08
6.86492e-06
4.5224e-08
6.86033e-06
5.92965e-08
6.85653e-06
6.75553e-08
6.85602e-06
8.07776e-08
6.85639e-06
9.74101e-08
6.85719e-06
1.13339e-07
6.85935e-06
1.24736e-07
1.33237e-07
6.86344e-06
7.23497e-06
8.90624e-08
7.23335e-06
1.64049e-07
7.22405e-06
-1.66309e-07
7.23259e-06
2.02611e-08
7.22039e-06
-4.76799e-09
7.22003e-06
-7.06684e-08
7.21897e-06
4.11671e-08
7.20749e-06
2.83842e-08
7.20623e-06
7.085e-09
7.20455e-06
4.69329e-08
7.19625e-06
4.63515e-08
7.19181e-06
3.36404e-08
7.19029e-06
4.67434e-08
7.18656e-06
6.30311e-08
7.18271e-06
7.14026e-08
7.18214e-06
8.13492e-08
7.18292e-06
9.6631e-08
7.18434e-06
1.11923e-07
7.18672e-06
1.22349e-07
1.29166e-07
7.19079e-06
7.5792e-06
7.40848e-08
7.57994e-06
1.63308e-07
7.5696e-06
-1.55967e-07
7.57749e-06
1.23715e-08
7.56377e-06
8.95853e-09
7.56041e-06
-6.7318e-08
7.56098e-06
4.06044e-08
7.54935e-06
4.00142e-08
7.54634e-06
1.00892e-08
7.54598e-06
4.72929e-08
7.53824e-06
5.40942e-08
7.53264e-06
3.92411e-08
7.53123e-06
4.81529e-08
7.52849e-06
6.57756e-08
7.52494e-06
7.49447e-08
7.52412e-06
8.21683e-08
7.5252e-06
9.55593e-08
7.52723e-06
1.09887e-07
7.52996e-06
1.19622e-07
1.25086e-07
7.53404e-06
7.93982e-06
6.00729e-08
7.94257e-06
1.60562e-07
7.9317e-06
-1.45094e-07
7.93931e-06
4.75682e-09
7.92427e-06
2.40011e-08
7.91742e-06
-6.04657e-08
7.91917e-06
3.8855e-08
7.90808e-06
5.10979e-08
7.90309e-06
1.50787e-08
7.9035e-06
4.68832e-08
7.89684e-06
6.07582e-08
7.89031e-06
4.57685e-08
7.88858e-06
4.98884e-08
7.88678e-06
6.75753e-08
7.88389e-06
7.78298e-08
7.8828e-06
8.32627e-08
7.88402e-06
9.43392e-08
7.8866e-06
1.07302e-07
7.88975e-06
1.16469e-07
1.20925e-07
7.89392e-06
8.3176e-06
4.71584e-08
8.32202e-06
1.56136e-07
8.31083e-06
-1.33907e-07
8.31838e-06
-2.7856e-09
8.30257e-06
3.98039e-08
8.29197e-06
-4.98648e-08
8.29426e-06
3.65721e-08
8.28436e-06
6.0993e-08
8.2774e-06
2.2036e-08
8.27795e-06
4.63343e-08
8.27266e-06
6.60528e-08
8.26563e-06
5.27974e-08
8.26325e-06
5.22648e-08
8.26218e-06
6.86441e-08
8.2602e-06
7.98118e-08
8.25898e-06
8.44814e-08
8.26022e-06
9.30988e-08
8.26323e-06
1.04294e-07
8.26685e-06
1.12849e-07
1.16592e-07
8.27118e-06
8.71333e-06
3.54919e-08
8.71948e-06
1.49981e-07
8.707e-06
-1.21419e-07
8.71481e-06
-1.06019e-08
8.69928e-06
5.53398e-08
8.68502e-06
-3.56068e-08
8.6871e-06
3.44878e-08
8.67883e-06
6.92634e-08
8.67021e-06
3.06572e-08
8.67027e-06
4.62792e-08
8.6664e-06
6.99227e-08
8.65935e-06
5.98472e-08
8.65621e-06
5.54035e-08
8.65557e-06
6.92813e-08
8.65457e-06
8.0815e-08
8.65349e-06
8.55635e-08
8.65469e-06
9.18934e-08
8.65797e-06
1.01015e-07
8.66204e-06
1.08777e-07
1.12009e-07
8.66662e-06
9.12788e-06
2.52354e-08
9.13563e-06
1.42228e-07
9.1213e-06
-1.0709e-07
9.12859e-06
-1.78898e-08
9.11483e-06
6.90935e-08
9.09754e-06
-1.83169e-08
9.09862e-06
3.34104e-08
9.0922e-06
7.56833e-08
9.08242e-06
4.04401e-08
9.08142e-06
4.72728e-08
9.07884e-06
7.25058e-08
9.07221e-06
6.64792e-08
9.06838e-06
5.92305e-08
9.06791e-06
6.97579e-08
9.06776e-06
8.09636e-08
9.0671e-06
8.62157e-08
9.06831e-06
9.06889e-08
9.07172e-06
9.75999e-08
9.07618e-06
1.04322e-07
1.07128e-07
9.08106e-06
9.56215e-06
1.65434e-08
9.5703e-06
1.34083e-07
9.55364e-06
-9.04336e-08
9.56041e-06
-2.46597e-08
9.54981e-06
7.96928e-08
9.53049e-06
1.00869e-09
9.52988e-06
3.40185e-08
9.52519e-06
8.03719e-08
9.51489e-06
5.07357e-08
9.51249e-06
4.96735e-08
9.51086e-06
7.41351e-08
9.505e-06
7.23456e-08
9.5007e-06
6.35288e-08
9.50016e-06
7.02936e-08
9.50065e-06
8.04795e-08
9.50064e-06
8.62228e-08
9.50195e-06
8.9374e-08
9.50542e-06
9.4132e-08
9.51017e-06
9.95767e-08
1.01937e-07
9.51536e-06
1.00171e-05
9.5425e-09
1.00248e-05
1.26393e-07
1.00064e-05
-7.20064e-08
1.00116e-05
-2.99003e-08
1.00049e-05
8.63887e-08
9.98479e-06
2.11625e-08
9.98193e-06
3.68817e-08
9.97867e-06
8.36333e-08
9.96844e-06
6.09594e-08
9.96456e-06
5.35549e-08
9.96342e-06
7.52783e-08
9.95854e-06
7.7224e-08
9.95407e-06
6.79982e-08
9.95333e-06
7.10371e-08
9.95422e-06
7.95829e-08
9.95494e-06
8.55019e-08
9.95652e-06
8.78005e-08
9.96002e-06
9.06304e-08
9.96496e-06
9.46361e-08
9.64575e-08
9.97044e-06
1.04939e-05
4.28112e-09
1.05015e-05
1.18841e-07
1.04818e-05
-5.23268e-08
1.04842e-05
-3.23122e-08
1.04811e-05
8.94709e-08
1.04613e-05
4.09379e-08
1.04559e-05
4.2288e-08
1.04536e-05
8.59905e-08
1.04439e-05
7.06208e-08
1.04387e-05
5.87787e-08
1.04375e-05
7.64077e-08
1.04337e-05
8.10581e-08
1.04294e-05
7.23201e-08
1.04284e-05
7.20237e-08
1.04295e-05
7.84781e-08
1.04309e-05
8.40767e-08
1.04329e-05
8.58319e-08
1.04365e-05
8.70577e-08
1.04415e-05
8.95699e-08
9.07334e-08
1.04473e-05
1.09936e-05
7.2928e-10
1.10037e-05
1.08686e-07
1.09809e-05
-2.95514e-08
1.09796e-05
-3.09611e-08
1.09794e-05
8.96457e-08
1.0961e-05
5.94027e-08
1.0953e-05
5.02063e-08
1.09509e-05
8.81209e-08
1.09422e-05
7.93609e-08
1.09359e-05
6.50725e-08
1.09344e-05
7.78981e-08
1.09315e-05
8.39651e-08
1.09276e-05
7.62163e-08
1.09264e-05
7.31588e-08
1.09276e-05
7.73495e-08
1.09296e-05
8.20231e-08
1.09321e-05
8.33792e-08
1.09358e-05
8.33427e-08
1.0941e-05
8.44125e-08
8.48133e-08
1.09469e-05
1.15172e-05
-1.15413e-09
1.15256e-05
1.00326e-07
1.15045e-05
-8.48492e-09
1.14995e-05
-2.58946e-08
1.15012e-05
8.79631e-08
1.14846e-05
7.59845e-08
1.14745e-05
6.03091e-08
1.14719e-05
9.06982e-08
1.14642e-05
8.70577e-08
1.14572e-05
7.20604e-08
1.14551e-05
8.00023e-08
1.14529e-05
8.61864e-08
1.14496e-05
7.95065e-08
1.14485e-05
7.4269e-08
1.14495e-05
7.63122e-08
1.14521e-05
7.94409e-08
1.14551e-05
8.04168e-08
1.1459e-05
7.94036e-08
1.14643e-05
7.91645e-08
7.87331e-08
1.14703e-05
1.20662e-05
-1.49975e-09
1.20735e-05
9.29964e-08
1.20532e-05
1.17843e-08
1.20449e-05
-1.75965e-08
1.20475e-05
8.54076e-08
1.20332e-05
9.03186e-08
1.20213e-05
7.21436e-08
1.20178e-05
9.42403e-08
1.2011e-05
9.38564e-08
1.20037e-05
7.93148e-08
1.20009e-05
8.28459e-08
1.19991e-05
8.80021e-08
1.19964e-05
8.21331e-08
1.19955e-05
7.52199e-08
1.19965e-05
7.52827e-08
1.19995e-05
7.64863e-08
1.20029e-05
7.6962e-08
1.20072e-05
7.51717e-08
1.20125e-05
7.37962e-08
7.2505e-08
1.20188e-05
1.26416e-05
-4.89217e-10
1.2648e-05
8.65566e-08
1.26293e-05
3.05233e-08
1.26174e-05
-5.76338e-09
1.26196e-05
8.32258e-08
1.26077e-05
1.0223e-07
1.25947e-05
8.5178e-08
1.25898e-05
9.90929e-08
1.25836e-05
1.00051e-07
1.25765e-05
8.64949e-08
1.25729e-05
8.64011e-08
1.25712e-05
8.96824e-08
1.25692e-05
8.41561e-08
1.25684e-05
7.59715e-08
1.25697e-05
7.40065e-08
1.25729e-05
7.33601e-08
1.25768e-05
7.3014e-08
1.25813e-05
7.06442e-08
1.25869e-05
6.82503e-08
6.61113e-08
1.25933e-05
1.32448e-05
1.63277e-09
1.32516e-05
7.97465e-08
1.32336e-05
4.85256e-08
1.32184e-05
9.45079e-09
1.3219e-05
8.26183e-08
1.32094e-05
1.11846e-07
1.31957e-05
9.88352e-08
1.31894e-05
1.05431e-07
1.31834e-05
1.06031e-07
1.31765e-05
9.34094e-08
1.31724e-05
9.05215e-08
1.31706e-05
9.14404e-08
1.31691e-05
8.5734e-08
1.31685e-05
7.64766e-08
1.31702e-05
7.23305e-08
1.31734e-05
7.01716e-08
1.31779e-05
6.84864e-08
1.31826e-05
6.59437e-08
1.31885e-05
6.24225e-08
5.95086e-08
1.31951e-05
1.38772e-05
4.62495e-09
1.38829e-05
7.40014e-08
1.38667e-05
6.47145e-08
1.38491e-05
2.70967e-08
1.38472e-05
8.44741e-08
1.38394e-05
1.19692e-07
1.38257e-05
1.12524e-07
1.38178e-05
1.13304e-07
1.38117e-05
1.12183e-07
1.3805e-05
1.00048e-07
1.38006e-05
9.49993e-08
1.37986e-05
9.34146e-08
1.37973e-05
8.70528e-08
1.3797e-05
7.66968e-08
1.37991e-05
7.03133e-08
1.38024e-05
6.68429e-08
1.38075e-05
6.33218e-08
1.38123e-05
6.11603e-08
1.38185e-05
5.62056e-08
5.26387e-08
1.38254e-05
1.45401e-05
8.22387e-09
1.45431e-05
7.09466e-08
1.45298e-05
7.79997e-08
1.45106e-05
4.6296e-08
1.45059e-05
8.91952e-08
1.4499e-05
1.26599e-07
1.44858e-05
1.25726e-07
1.44765e-05
1.22656e-07
1.44698e-05
1.18848e-07
1.44633e-05
1.06563e-07
1.44586e-05
9.9642e-08
1.44564e-05
9.56828e-08
1.44552e-05
8.82559e-08
1.44552e-05
7.66703e-08
1.44574e-05
6.81414e-08
1.44611e-05
6.30567e-08
1.44665e-05
5.79821e-08
1.4472e-05
5.56357e-08
1.44783e-05
4.9913e-08
4.53286e-08
1.44856e-05
1.52349e-05
1.21912e-08
1.52364e-05
6.94243e-08
1.52245e-05
8.99135e-08
1.52042e-05
6.65699e-08
1.51966e-05
9.68297e-08
1.51898e-05
1.33392e-07
1.51773e-05
1.38218e-07
1.51667e-05
1.3325e-07
1.51592e-05
1.26362e-07
1.51526e-05
1.13181e-07
1.51479e-05
1.04385e-07
1.51453e-05
9.82152e-08
1.51441e-05
8.94883e-08
1.51443e-05
7.65105e-08
1.51465e-05
6.58773e-08
1.51509e-05
5.87152e-08
1.51561e-05
5.27798e-08
1.51628e-05
4.8862e-08
1.51691e-05
4.36185e-08
3.76702e-08
1.51768e-05
1.59631e-05
1.63861e-08
1.59625e-05
7.00899e-08
1.59517e-05
1.00667e-07
1.59314e-05
8.68804e-08
1.59208e-05
1.07414e-07
1.59135e-05
1.40738e-07
1.59016e-05
1.50106e-07
1.58901e-05
1.44744e-07
1.58815e-05
1.34959e-07
1.58745e-05
1.20196e-07
1.58695e-05
1.09333e-07
1.58668e-05
1.00926e-07
1.58654e-05
9.09102e-08
1.58656e-05
7.63264e-08
1.58679e-05
6.35446e-08
1.58726e-05
5.40406e-08
1.58781e-05
4.73169e-08
1.58854e-05
4.15643e-08
1.58929e-05
3.60243e-08
3.05122e-08
1.59001e-05
1.67263e-05
2.07044e-08
1.67221e-05
7.43103e-08
1.67133e-05
1.09407e-07
1.66935e-05
1.06668e-07
1.66801e-05
1.20803e-07
1.66717e-05
1.49232e-07
1.66601e-05
1.61661e-07
1.6648e-05
1.56887e-07
1.66382e-05
1.44743e-07
1.66305e-05
1.27904e-07
1.66251e-05
1.1473e-07
1.66221e-05
1.03845e-07
1.66205e-05
9.25919e-08
1.66206e-05
7.62338e-08
1.66229e-05
6.12296e-08
1.66276e-05
4.93498e-08
1.66338e-05
4.11007e-08
1.66414e-05
3.393e-08
1.66497e-05
2.77687e-08
2.2284e-08
1.66579e-05
1.7526e-05
2.50334e-08
1.75223e-05
7.79973e-08
1.75116e-05
1.201e-07
1.7492e-05
1.26277e-07
1.74762e-05
1.36621e-07
1.74661e-05
1.59404e-07
1.74545e-05
1.73239e-07
1.74418e-05
1.69549e-07
1.74308e-05
1.55725e-07
1.74222e-05
1.36582e-07
1.7416e-05
1.20839e-07
1.74126e-05
1.07276e-07
1.74107e-05
9.45039e-08
1.74105e-05
7.64128e-08
1.74127e-05
5.90791e-08
1.74174e-05
4.4605e-08
1.74242e-05
3.42885e-08
1.74324e-05
2.57573e-08
1.74414e-05
1.88028e-08
1.27749e-08
1.74509e-05
1.8364e-05
2.93741e-08
1.83576e-05
8.44469e-08
1.83477e-05
1.29952e-07
1.83286e-05
1.45386e-07
1.83108e-05
1.54448e-07
1.82985e-05
1.71666e-07
1.82864e-05
1.85297e-07
1.82733e-05
1.82705e-07
1.82611e-05
1.67927e-07
1.82512e-05
1.46468e-07
1.82441e-05
1.27981e-07
1.82397e-05
1.11629e-07
1.82375e-05
9.67166e-08
1.82368e-05
7.70805e-08
1.82387e-05
5.72199e-08
1.82435e-05
3.98319e-08
1.82507e-05
2.70345e-08
1.82597e-05
1.67728e-08
1.82696e-05
8.90206e-09
2.06429e-09
1.82803e-05
1.9242e-05
3.37409e-08
1.92348e-05
9.17064e-08
1.92235e-05
1.41183e-07
1.92049e-05
1.64069e-07
1.91855e-05
1.7379e-07
1.91709e-05
1.86276e-07
1.91579e-05
1.98341e-07
1.91441e-05
1.96438e-07
1.91306e-05
1.81404e-07
1.91193e-05
1.57807e-07
1.91107e-05