/*--------------------------------*- C++ -*----------------------------------*\
| =========                 |                                                 |
| \\      /  F ield         | OpenFOAM: The Open Source CFD Toolbox           |
|  \\    /   O peration     | Version:  v2012                                 |
|   \\  /    A nd           | Website:  www.openfoam.com                      |
|    \\/     M anipulation  |                                                 |
\*---------------------------------------------------------------------------*/
FoamFile
{
    version     2.0;
    format      ascii;
    class       volVectorField;
    location    "2.55";
    object      U;
}
// * * * * * * * * * * * * * * * * * * * * * * * * * * * * * * * * * * * * * //

dimensions      [0 1 -1 0 0 0 0];


internalField   nonuniform List<vector> 
17600
(
(0.837866 0.00485497 0)
(1.1718 -0.000655328 0)
(0.819992 -0.0024274 0)
(1.14951 0.00077461 0)
(0.830599 0.000402074 0)
(1.13473 -0.00103395 0)
(0.835459 0.000560524 0)
(1.12148 -0.000465066 0)
(0.847399 0.000957946 0)
(1.11029 -0.000313944 0)
(0.856041 0.00102606 0)
(1.10147 -0.000350667 0)
(0.861914 0.00133226 0)
(1.09498 -0.000806106 0)
(0.863029 0.00169065 0)
(1.09097 -0.00175284 0)
(0.857747 0.0025362 0)
(1.08882 -0.00299677 0)
(0.842524 0.00388396 0)
(1.08713 -0.00348149 0)
(0.846098 0.0047116 0)
(1.15748 -0.000350078 0)
(0.83257 -0.00244679 0)
(1.1346 0.000868795 0)
(0.846335 0.000325335 0)
(1.11775 -0.000868968 0)
(0.853725 0.000475798 0)
(1.10163 -0.00035571 0)
(0.869357 0.000861416 0)
(1.08654 -0.000187871 0)
(0.883421 0.000919734 0)
(1.072 -0.000202075 0)
(0.897442 0.00123508 0)
(1.05638 -0.000659265 0)
(0.911206 0.00166057 0)
(1.03775 -0.00169838 0)
(0.925791 0.0028144 0)
(1.01235 -0.00340012 0)
(0.941701 0.00532599 0)
(0.974236 -0.00513345 0)
(0.862761 0.00459602 0)
(1.13298 -6.0918e-05 0)
(0.857564 -0.00244842 0)
(1.10675 0.00093034 0)
(0.874635 0.000299145 0)
(1.08802 -0.000750167 0)
(0.885725 0.000445613 0)
(1.06854 -0.00033624 0)
(0.904914 0.000858176 0)
(1.05031 -0.000206597 0)
(0.922852 0.000960526 0)
(1.03292 -0.000277919 0)
(0.940205 0.00134909 0)
(1.01571 -0.000785346 0)
(0.955329 0.00186986 0)
(0.999053 -0.0018147 0)
(0.966683 0.00305408 0)
(0.983428 -0.00321027 0)
(0.971329 0.00534395 0)
(0.969695 -0.00330994 0)
(0.885573 0.00456744 0)
(1.10317 0.000105033 0)
(0.890923 -0.00236828 0)
(1.07258 0.000909856 0)
(0.908315 0.000347129 0)
(1.05433 -0.000742741 0)
(0.920923 0.000524309 0)
(1.03453 -0.000433695 0)
(0.939375 0.000971089 0)
(1.01819 -0.000356759 0)
(0.955034 0.00111331 0)
(1.00507 -0.000469561 0)
(0.967852 0.00154477 0)
(0.994902 -0.000976374 0)
(0.976232 0.00209075 0)
(0.987698 -0.00192971 0)
(0.979551 0.00324281 0)
(0.982398 -0.00305438 0)
(0.977138 0.00532428 0)
(0.976913 -0.00178412 0)
(0.911062 0.00460207 0)
(1.07317 0.00015154 0)
(0.925641 -0.00220001 0)
(1.04045 0.000842103 0)
(0.939569 0.000432887 0)
(1.02608 -0.000797742 0)
(0.950167 0.000655939 0)
(1.00997 -0.000564202 0)
(0.963838 0.00109953 0)
(0.999364 -0.000507452 0)
(0.973872 0.00123274 0)
(0.993116 -0.000609695 0)
(0.980861 0.00164852 0)
(0.989741 -0.00107192 0)
(0.984334 0.00217281 0)
(0.987839 -0.00194308 0)
(0.984578 0.00329966 0)
(0.985418 -0.00288523 0)
(0.98128 0.00535681 0)
(0.980686 -0.000612291 0)
(0.935644 0.00467365 0)
(1.0475 0.000104216 0)
(0.955394 -0.00197913 0)
(1.01673 0.000772536 0)
(0.963632 0.000514707 0)
(1.00833 -0.000859971 0)
(0.970195 0.000775104 0)
(0.997771 -0.000661855 0)
(0.978301 0.00118029 0)
(0.992714 -0.000603777 0)
(0.983547 0.00127708 0)
(0.991182 -0.000685985 0)
(0.987204 0.00166599 0)
(0.990999 -0.00111215 0)
(0.988934 0.00217385 0)
(0.990673 -0.00190753 0)
(0.988616 0.00326837 0)
(0.988728 -0.00262311 0)
(0.985404 0.00530543 0)
(0.984308 0.000470597 0)
(0.956561 0.00475686 0)
(1.02872 1.50626e-06 0)
(0.97701 -0.00175204 0)
(1.00335 0.000727052 0)
(0.979835 0.00056635 0)
(1.0005 -0.000903264 0)
(0.982588 0.000855536 0)
(0.994717 -0.000714866 0)
(0.986764 0.00121381 0)
(0.992888 -0.000658698 0)
(0.989341 0.00127514 0)
(0.99332 -0.000735242 0)
(0.991694 0.00164778 0)
(0.994078 -0.00113742 0)
(0.992942 0.0021474 0)
(0.994069 -0.00184604 0)
(0.992466 0.00319058 0)
(0.992232 -0.00226504 0)
(0.989264 0.00514201 0)
(0.988122 0.00158292 0)
(0.972448 0.00482718 0)
(1.01695 -0.000117266 0)
(0.990558 -0.00155392 0)
(0.998212 0.00070738 0)
(0.989975 0.00058738 0)
(0.998894 -0.000926243 0)
(0.990279 0.000901463 0)
(0.996129 -0.000739742 0)
(0.992492 0.00122297 0)
(0.995559 -0.000693173 0)
(0.993827 0.0012572 0)
(0.996466 -0.000774366 0)
(0.995649 0.00161882 0)
(0.997349 -0.00115176 0)
(0.996633 0.0021063 0)
(0.997329 -0.001753 0)
(0.995974 0.00308046 0)
(0.99549 -0.0018473 0)
(0.992752 0.00494448 0)
(0.991605 0.00263927 0)
(0.983315 0.0048687 0)
(1.01055 -0.000225186 0)
(0.997976 -0.0013991 0)
(0.997663 0.000700062 0)
(0.996197 0.000590526 0)
(0.999887 -0.00093779 0)
(0.995321 0.000925566 0)
(0.998728 -0.00075293 0)
(0.99682 0.00122423 0)
(0.998499 -0.000716529 0)
(0.997536 0.0012366 0)
(0.999369 -0.000804989 0)
(0.999011 0.00158514 0)
(1.00015 -0.00114994 0)
(0.999725 0.0020494 0)
(1.00002 -0.00162091 0)
(0.998856 0.00293668 0)
(0.998137 -0.00137372 0)
(0.995625 0.00472346 0)
(0.994455 0.00360495 0)
(0.990073 0.00487771 0)
(1.00748 -0.000311045 0)
(1.00156 -0.00128456 0)
(0.998729 0.000690679 0)
(0.999982 0.000588228 0)
(1.00133 -0.000945561 0)
(0.998658 0.000937652 0)
(1.001 -0.000762825 0)
(1.00001 0.00122352 0)
(1.00085 -0.000731635 0)
(1.00036 0.00121574 0)
(1.00159 -0.000825144 0)
(1.00155 0.00154581 0)
(1.00222 -0.00112709 0)
(1.002 0.0019738 0)
(1.00197 -0.00145025 0)
(1.00093 0.00276734 0)
(1.00004 -0.000859583 0)
(0.997734 0.00449844 0)
(0.996564 0.00445806 0)
(0.993943 0.00485909 0)
(1.00613 -0.000374658 0)
(1.0031 -0.00119915 0)
(0.999863 0.000672401 0)
(1.00219 0.00058665 0)
(1.00242 -0.000952936 0)
(1.00073 0.000942896 0)
(1.00254 -0.000772352 0)
(1.00212 0.00122068 0)
(1.00245 -0.000739595 0)
(1.00227 0.00119255 0)
(1.00307 -0.000832411 0)
(1.00322 0.00149646 0)
(1.00357 -0.00107769 0)
(1.00345 0.00187283 0)
(1.00321 -0.00123704 0)
(1.00224 0.00257408 0)
(1.00125 -0.000331888 0)
(0.999131 0.00430504 0)
(0.997991 0.00518848 0)
(0.996023 0.00482038 0)
(1.00556 -0.000420335 0)
(1.0037 -0.00113173 0)
(1.00061 0.000645491 0)
(1.00337 0.000586572 0)
(1.00306 -0.000960594 0)
(1.00189 0.000943439 0)
(1.00344 -0.00078194 0)
(1.00337 0.00121352 0)
(1.00341 -0.000740781 0)
(1.00341 0.00116369 0)
(1.00396 -0.000824933 0)
(1.0042 0.00143268 0)
(1.00436 -0.00100002 0)
(1.00426 0.00174676 0)
(1.00391 -0.000988206 0)
(1.00297 0.00236166 0)
(1.00195 0.000218699 0)
(0.999998 0.00417774 0)
(0.998906 0.0057876 0)
(0.997103 0.00476779 0)
(1.0053 -0.000452614 0)
(1.0039 -0.00107495 0)
(1.001 0.000613454 0)
(1.00393 0.000586303 0)
(1.00337 -0.000968265 0)
(1.00246 0.0009401 0)
(1.0039 -0.000790697 0)
(1.00404 0.00119997 0)
(1.00394 -0.000734835 0)
(1.00403 0.00112571 0)
(1.00446 -0.000801176 0)
(1.00471 0.00135151 0)
(1.00477 -0.00089614 0)
(1.00466 0.00160153 0)
(1.00427 -0.000721178 0)
(1.00334 0.00216066 0)
(1.00232 0.000759801 0)
(1.00053 0.00412058 0)
(0.999497 0.00624965 0)
(0.997668 0.00470524 0)
(1.00515 -0.000474752 0)
(1.00396 -0.00102505 0)
(1.00118 0.000579623 0)
(1.00418 0.00058481 0)
(1.0035 -0.000974853 0)
(1.00273 0.000932815 0)
(1.00412 -0.000796817 0)
(1.00437 0.00117824 0)
(1.00422 -0.000720147 0)
(1.00435 0.00107479 0)
(1.00472 -0.000759361 0)
(1.00496 0.00125084 0)
(1.00498 -0.00076817 0)
(1.00485 0.00144071 0)
(1.00444 -0.000446583 0)
(1.00353 0.00199547 0)
(1.00253 0.00123176 0)
(1.0009 0.00412971 0)
(0.99992 0.00659462 0)
(0.997978 0.0046348 0)
(1.00505 -0.000488544 0)
(1.00397 -0.000980869 0)
(1.00126 0.000546593 0)
(1.00427 0.000580585 0)
(1.00355 -0.000978901 0)
(1.00284 0.00092039 0)
(1.00422 -0.000798286 0)
(1.00453 0.00114593 0)
(1.00436 -0.000693947 0)
(1.00451 0.00100732 0)
(1.00487 -0.000698113 0)
(1.00509 0.00113051 0)
(1.00509 -0.000622807 0)
(1.00494 0.00127766 0)
(1.00452 -0.000179168 0)
(1.00364 0.00186796 0)
(1.00267 0.0016408 0)
(1.00119 0.00420803 0)
(1.00027 0.00685151 0)
(0.99816 0.00455744 0)
(1.00497 -0.000494618 0)
(1.00398 -0.00094273 0)
(1.0013 0.000516464 0)
(1.0043 0.000571232 0)
(1.00357 -0.000979102 0)
(1.00289 0.000901528 0)
(1.00427 -0.000792996 0)
(1.00461 0.00110027 0)
(1.00444 -0.000653895 0)
(1.0046 0.000922086 0)
(1.00495 -0.000618787 0)
(1.00515 0.000992946 0)
(1.00515 -0.000463525 0)
(1.00499 0.00111248 0)
(1.00457 8.41529e-05 0)
(1.00374 0.00179793 0)
(1.0028 0.00200233 0)
(1.00147 0.0043455 0)
(1.00061 0.00704631 0)
(0.998276 0.00447359 0)
(1.00488 -0.000493004 0)
(1.00398 -0.00091145 0)
(1.00132 0.000490893 0)
(1.0043 0.000554699 0)
(1.00358 -0.000973925 0)
(1.00291 0.000874503 0)
(1.0043 -0.000777683 0)
(1.00465 0.00103869 0)
(1.00448 -0.000598944 0)
(1.00464 0.000820384 0)
(1.00499 -0.000525907 0)
(1.00519 0.000847236 0)
(1.00518 -0.000304414 0)
(1.00503 0.000960968 0)
(1.00462 0.000331327 0)
(1.00383 0.00178492 0)
(1.00294 0.00231855 0)
(1.00174 0.00451807 0)
(1.00094 0.00719899 0)
(0.998358 0.00438346 0)
(1.00479 -0.000483605 0)
(1.00398 -0.000887911 0)
(1.00133 0.000471167 0)
(1.00429 0.00053096 0)
(1.00358 -0.000960778 0)
(1.00292 0.000836303 0)
(1.00431 -0.000748805 0)
(1.00468 0.000960526 0)
(1.00449 -0.000530437 0)
(1.00467 0.000704806 0)
(1.00502 -0.000424396 0)
(1.00522 0.00070074 0)
(1.0052 -0.000159225 0)
(1.00507 0.000847432 0)
(1.00467 0.000537791 0)
(1.00394 0.00181057 0)
(1.00309 0.00258928 0)
(1.00202 0.00470505 0)
(1.00128 0.00733011 0)
(0.998421 0.00428702 0)
(1.0047 -0.000465742 0)
(1.00398 -0.000873833 0)
(1.00134 0.000459423 0)
(1.00426 0.000498209 0)
(1.00358 -0.000937727 0)
(1.00293 0.000785226 0)
(1.00431 -0.000707048 0)
(1.00469 0.000868178 0)
(1.00449 -0.0004509 0)
(1.00468 0.000578082 0)
(1.00503 -0.00031955 0)
(1.00524 0.000557993 0)
(1.00522 -3.20508e-05 0)
(1.00511 0.000765776 0)
(1.00472 0.000708432 0)
(1.00405 0.00187706 0)
(1.00326 0.00283431 0)
(1.00231 0.0048982 0)
(1.00162 0.00745436 0)
(0.998476 0.004184 0)
(1.0046 -0.000438495 0)
(1.00399 -0.000870866 0)
(1.00134 0.000457302 0)
(1.00423 0.000453105 0)
(1.00358 -0.000903799 0)
(1.00293 0.000721062 0)
(1.00431 -0.000653862 0)
(1.0047 0.000760792 0)
(1.00449 -0.000360823 0)
(1.0047 0.000443807 0)
(1.00503 -0.000218704 0)
(1.00526 0.000426536 0)
(1.00524 7.40749e-05 0)
(1.00515 0.000711819 0)
(1.00479 0.000853083 0)
(1.00417 0.00197432 0)
(1.00345 0.00306414 0)
(1.00261 0.00508456 0)
(1.00197 0.00757145 0)
(0.998528 0.00407434 0)
(1.0045 -0.000401755 0)
(1.00399 -0.000879787 0)
(1.00134 0.000465175 0)
(1.0042 0.000394904 0)
(1.00357 -0.000858204 0)
(1.00294 0.000644779 0)
(1.00431 -0.000588859 0)
(1.00471 0.000639354 0)
(1.00448 -0.000266382 0)
(1.00471 0.000310412 0)
(1.00504 -0.000132528 0)
(1.00528 0.000314488 0)
(1.00526 0.000153751 0)
(1.0052 0.000683533 0)
(1.00486 0.00098369 0)
(1.00431 0.00209021 0)
(1.00365 0.00329222 0)
(1.00292 0.00526325 0)
(1.00233 0.00768396 0)
(0.998579 0.00395855 0)
(1.0044 -0.000354621 0)
(1.004 -0.000902235 0)
(1.00135 0.000485532 0)
(1.00416 0.000321572 0)
(1.00357 -0.000800596 0)
(1.00294 0.00055714 0)
(1.0043 -0.000512483 0)
(1.00472 0.000509768 0)
(1.00447 -0.000175933 0)
(1.00471 0.000189379 0)
(1.00504 -7.34899e-05 0)
(1.0053 0.000227287 0)
(1.00528 0.000200475 0)
(1.00525 0.000667743 0)
(1.00495 0.0011051 0)
(1.00446 0.00221484 0)
(1.00387 0.00353003 0)
(1.00324 0.00544158 0)
(1.00268 0.00779666 0)
(0.998629 0.00383497 0)
(1.0043 -0.000292299 0)
(1.004 -0.000941269 0)
(1.00135 0.000521619 0)
(1.00412 0.000232885 0)
(1.00357 -0.000730609 0)
(1.00294 0.00045542 0)
(1.0043 -0.000424804 0)
(1.00473 0.000377216 0)
(1.00446 -9.55872e-05 0)
(1.00472 8.92925e-05 0)
(1.00505 -4.78857e-05 0)
(1.00532 0.000164763 0)
(1.00531 0.000231687 0)
(1.00531 0.000654777 0)
(1.00505 0.00120738 0)
(1.00463 0.00233227 0)
(1.0041 0.00376774 0)
(1.00356 0.00562206 0)
(1.00305 0.0079109 0)
(0.998677 0.00370018 0)
(1.0042 -0.000213664 0)
(1.004 -0.00100231 0)
(1.00136 0.000576511 0)
(1.00408 0.000122226 0)
(1.00357 -0.000643526 0)
(1.00294 0.000337799 0)
(1.0043 -0.000333458 0)
(1.00474 0.000246788 0)
(1.00445 -3.30937e-05 0)
(1.00473 4.17586e-06 0)
(1.00505 -4.57715e-05 0)
(1.00533 0.000120775 0)
(1.00534 0.000244244 0)
(1.00537 0.000660831 0)
(1.00516 0.00127217 0)
(1.00481 0.00244777 0)
(1.00434 0.00396453 0)
(1.00388 0.00581812 0)
(1.00341 0.00803475 0)
(0.998722 0.00356802 0)
(1.00409 -0.000138045 0)
(1.00399 -0.00106593 0)
(1.00136 0.0006258 0)
(1.00404 1.63863e-05 0)
(1.00357 -0.000569795 0)
(1.00294 0.000244386 0)
(1.0043 -0.000281174 0)
(1.00475 0.000162737 0)
(1.00445 -2.74984e-05 0)
(1.00472 -1.94488e-05 0)
(1.00507 -0.000102916 0)
(1.00535 0.000124635 0)
(1.00538 0.000188656 0)
(1.00544 0.000728829 0)
(1.00529 0.00125985 0)
(1.00501 0.00258827 0)
(1.00461 0.00402977 0)
(1.00422 0.00601922 0)
(1.00379 0.00814247 0)
(0.998767 0.00342064 0)
(1.00399 -3.05331e-05 0)
(1.00399 -0.00116138 0)
(1.00137 0.000704921 0)
(1.00399 -0.000114335 0)
(1.00357 -0.00048038 0)
(1.00294 0.00013525 0)
(1.00429 -0.000207363 0)
(1.00475 6.14509e-05 0)
(1.00445 -4.08946e-06 0)
(1.00472 -7.19409e-05 0)
(1.00508 -0.00010537 0)
(1.00537 6.15951e-05 0)
(1.00542 0.000211766 0)
(1.00551 0.000691325 0)
(1.00543 0.0013204 0)
(1.00521 0.00258992 0)
(1.00489 0.00412714 0)
(1.00459 0.00600042 0)
(1.00417 0.00817984 0)
(0.998811 0.00326033 0)
(1.00388 0.000100312 0)
(1.00398 -0.00128678 0)
(1.00138 0.000803879 0)
(1.00394 -0.000263531 0)
(1.00357 -0.000389844 0)
(1.00294 3.15129e-05 0)
(1.00429 -0.000151254 0)
(1.00476 -2.44972e-05 0)
(1.00445 -2.83523e-06 0)
(1.00472 -0.000123019 0)
(1.00509 -9.78866e-05 0)
(1.00539 -2.38412e-05 0)
(1.00547 0.000270793 0)
(1.00559 0.000626608 0)
(1.00557 0.00142538 0)
(1.00544 0.00259306 0)
(1.00518 0.00426678 0)
(1.00495 0.00599233 0)
(1.00461 0.00823043 0)
(0.998851 0.00310983 0)
(1.00377 0.000219896 0)
(1.00396 -0.00140314 0)
(1.00139 0.000877235 0)
(1.00388 -0.000383866 0)
(1.00358 -0.000335252 0)
(1.00293 -2.15997e-05 0)
(1.0043 -0.000174033 0)
(1.00475 -4.13645e-05 0)
(1.00445 -6.92387e-05 0)
(1.00471 -0.000116192 0)
(1.00511 -0.000140641 0)
(1.00542 -4.15469e-05 0)
(1.00552 0.000268169 0)
(1.00567 0.00075932 0)
(1.00573 0.00152859 0)
(1.00567 0.00277861 0)
(1.00548 0.00437297 0)
(1.00532 0.0061755 0)
(1.00505 0.0082459 0)
(0.99889 0.00293592 0)
(1.00366 0.00037844 0)
(1.00395 -0.00154983 0)
(1.0014 0.00097428 0)
(1.00382 -0.000517066 0)
(1.00359 -0.000285684 0)
(1.00292 -6.24288e-05 0)
(1.0043 -0.000204727 0)
(1.00475 -5.45974e-05 0)
(1.00445 -0.000117037 0)
(1.00471 -0.000134552 0)
(1.00512 -0.00012878 0)
(1.00545 -1.36621e-05 0)
(1.00559 0.000363419 0)
(1.00577 0.000964923 0)
(1.00589 0.00171887 0)
(1.00591 0.00294382 0)
(1.0058 0.0045247 0)
(1.00571 0.00632756 0)
(1.00548 0.00829182 0)
(0.998932 0.00276253 0)
(1.00353 0.000543684 0)
(1.00393 -0.00170193 0)
(1.00141 0.00105522 0)
(1.00375 -0.000623443 0)
(1.0036 -0.000284923 0)
(1.00291 -5.45461e-05 0)
(1.0043 -0.000270595 0)
(1.00475 -4.37321e-05 0)
(1.00446 -0.000162094 0)
(1.00471 -0.00012517 0)
(1.00514 -6.99052e-05 0)
(1.00548 9.66074e-05 0)
(1.00567 0.000504493 0)
(1.00588 0.00116761 0)
(1.00606 0.00191624 0)
(1.00616 0.00307132 0)
(1.00613 0.00464198 0)
(1.00609 0.00642309 0)
(1.00591 0.00830303 0)
(0.998976 0.00258408 0)
(1.0034 0.000713906 0)
(1.00391 -0.00185162 0)
(1.00142 0.00110552 0)
(1.00369 -0.000692491 0)
(1.00362 -0.000318877 0)
(1.0029 -2.93902e-05 0)
(1.0043 -0.000342657 0)
(1.00475 -4.14611e-05 0)
(1.00446 -0.000149925 0)
(1.00472 -0.000108932 0)
(1.00516 5.78821e-05 0)
(1.00553 0.000220392 0)
(1.00576 0.000616291 0)
(1.00599 0.00133542 0)
(1.00623 0.00211315 0)
(1.00641 0.00320261 0)
(1.00647 0.00472807 0)
(1.00649 0.00647694 0)
(1.00634 0.00828167 0)
(0.999021 0.00239936 0)
(1.00325 0.000889372 0)
(1.00389 -0.00199178 0)
(1.00143 0.00112495 0)
(1.00361 -0.000732513 0)
(1.00363 -0.000398379 0)
(1.00288 2.67169e-05 0)
(1.0043 -0.000413611 0)
(1.00475 -2.42368e-05 0)
(1.00446 -5.90264e-05 0)
(1.00473 -6.07049e-05 0)
(1.00519 0.000207277 0)
(1.00557 0.000363184 0)
(1.00585 0.000714878 0)
(1.00613 0.00145873 0)
(1.0064 0.0023004 0)
(1.00666 0.00333463 0)
(1.00681 0.00478688 0)
(1.00689 0.00648155 0)
(1.00676 0.00821694 0)
(0.99907 0.00221483 0)
(1.0031 0.00106063 0)
(1.00386 -0.00211376 0)
(1.00143 0.00111097 0)
(1.00353 -0.000743647 0)
(1.00365 -0.000509648 0)
(1.00286 0.000104269 0)
(1.0043 -0.000459195 0)
(1.00477 7.48324e-06 0)
(1.00446 8.90927e-05 0)
(1.00475 1.54559e-05 0)
(1.00523 0.00034081 0)
(1.00561 0.000520014 0)
(1.00594 0.000821118 0)
(1.00627 0.00154665 0)
(1.00658 0.00246431 0)
(1.00691 0.00346911 0)
(1.00715 0.00483065 0)
(1.0073 0.00644458 0)
(1.00718 0.00810823 0)
(0.99912 0.00202679 0)
(1.00293 0.00122791 0)
(1.00383 -0.00220659 0)
(1.00144 0.00105153 0)
(1.00344 -0.000725786 0)
(1.00367 -0.000634449 0)
(1.00285 0.000186658 0)
(1.00429 -0.000458702 0)
(1.0048 4.9998e-05 0)
(1.00446 0.000262441 0)
(1.00477 8.76877e-05 0)
(1.00527 0.000429508 0)
(1.00565 0.000678294 0)
(1.00603 0.000941807 0)
(1.00642 0.00161607 0)
(1.00678 0.00259055 0)
(1.00716 0.00360103 0)
(1.00749 0.00486649 0)
(1.0077 0.00637523 0)
(1.0076 0.00795968 0)
(0.999171 0.00183927 0)
(1.00276 0.00138241 0)
(1.00379 -0.00226094 0)
(1.00145 0.000955563 0)
(1.00335 -0.000693061 0)
(1.00369 -0.000764764 0)
(1.00284 0.000278316 0)
(1.00427 -0.000402024 0)
(1.00484 9.30754e-05 0)
(1.00446 0.000445835 0)
(1.00478 0.000175092 0)
(1.00532 0.000487902 0)
(1.00569 0.00083831 0)
(1.00611 0.00108619 0)
(1.00658 0.00169038 0)
(1.00699 0.00268015 0)
(1.00741 0.00372161 0)
(1.00782 0.00490426 0)
(1.0081 0.00629279 0)
(1.00802 0.00778526 0)
(0.999224 0.00165676 0)
(1.00259 0.00151383 0)
(1.00374 -0.00227431 0)
(1.00146 0.000838695 0)
(1.00325 -0.000647107 0)
(1.00372 -0.000886637 0)
(1.00284 0.000384372 0)
(1.00426 -0.000293062 0)
(1.00489 0.000115911 0)
(1.00446 0.000619626 0)
(1.00478 0.000295133 0)
(1.00537 0.000523445 0)
(1.00575 0.000981907 0)
(1.00619 0.00124699 0)
(1.00674 0.00177497 0)
(1.00721 0.00273781 0)
(1.00768 0.00381309 0)
(1.00813 0.00494074 0)
(1.00848 0.00620976 0)
(1.00843 0.00759568 0)
(0.999278 0.00147567 0)
(1.0024 0.00162316 0)
(1.00367 -0.00225292 0)
(1.00148 0.000706107 0)
(1.00315 -0.000576618 0)
(1.00375 -0.000988546 0)
(1.00286 0.000496132 0)
(1.00423 -0.000152428 0)
(1.00494 0.000117081 0)
(1.00447 0.000767583 0)
(1.00477 0.000443454 0)
(1.00543 0.000549577 0)
(1.00583 0.0010931 0)
(1.00627 0.00141691 0)
(1.00689 0.00187274 0)
(1.00745 0.00277401 0)
(1.00795 0.00386577 0)
(1.00845 0.00496627 0)
(1.00885 0.00612913 0)
(1.00883 0.0073969 0)
(0.999331 0.00129829 0)
(1.00222 0.00170916 0)
(1.0036 -0.00220165 0)
(1.0015 0.000572697 0)
(1.00305 -0.000474347 0)
(1.00378 -0.0010601 0)
(1.00289 0.000594268 0)
(1.0042 1.99812e-05 0)
(1.005 0.000104509 0)
(1.0045 0.000883326 0)
(1.00475 0.000620772 0)
(1.00549 0.000594289 0)
(1.00592 0.00117337 0)
(1.00636 0.00158766 0)
(1.00704 0.0019896 0)
(1.00768 0.0028024 0)
(1.00823 0.00388462 0)
(1.00876 0.00497524 0)
(1.00921 0.00605177 0)
(1.00922 0.00719677 0)
(0.999385 0.00112984 0)
(1.00203 0.00176324 0)
(1.00351 -0.00212297 0)
(1.00152 0.000446989 0)
(1.00294 -0.000338833 0)
(1.00382 -0.00110848 0)
(1.00294 0.00066376 0)
(1.00415 0.000215051 0)
(1.00505 9.53973e-05 0)
(1.00454 0.000966439 0)
(1.00473 0.000819973 0)
(1.00554 0.00066675 0)
(1.00602 0.00122118 0)
(1.00645 0.00173779 0)
(1.00718 0.0021206 0)
(1.00792 0.00283266 0)
(1.00853 0.00387549 0)
(1.00907 0.00495817 0)
(1.00955 0.00596867 0)
(1.00959 0.00699541 0)
(0.999439 0.000969273 0)
(1.00185 0.00178633 0)
(1.00341 -0.00202512 0)
(1.00156 0.000332055 0)
(1.00284 -0.000168537 0)
(1.00385 -0.00112406 0)
(1.003 0.000689364 0)
(1.00411 0.000423866 0)
(1.00511 0.000105364 0)
(1.0046 0.00101023 0)
(1.00472 0.00102465 0)
(1.00558 0.000770704 0)
(1.00614 0.00124813 0)
(1.00657 0.00185677 0)
(1.00732 0.00225806 0)
(1.00814 0.0028749 0)
(1.00883 0.00384597 0)
(1.0094 0.00490807 0)
(1.00988 0.00586898 0)
(1.00995 0.00679081 0)
(0.999492 0.000814874 0)
(1.00167 0.00178725 0)
(1.00331 -0.00191324 0)
(1.0016 0.000226632 0)
(1.00273 3.13445e-05 0)
(1.00388 -0.0010926 0)
(1.00309 0.000678658 0)
(1.00406 0.000640917 0)
(1.00515 0.000147322 0)
(1.00469 0.00101721 0)
(1.00471 0.00122062 0)
(1.00561 0.000910644 0)
(1.00627 0.00127467 0)
(1.0067 0.00194517 0)
(1.00745 0.00239259 0)
(1.00836 0.00293373 0)
(1.00913 0.00380597 0)
(1.00972 0.00482626 0)
(1.01021 0.00574884 0)
(1.01028 0.00658499 0)
(0.999544 0.00067102 0)
(1.0015 0.00176631 0)
(1.0032 -0.00179186 0)
(1.00165 0.000122244 0)
(1.00263 0.000242303 0)
(1.0039 -0.00101134 0)
(1.00319 0.000645524 0)
(1.00402 0.00085147 0)
(1.00518 0.000228854 0)
(1.00479 0.000996536 0)
(1.00472 0.00138635 0)
(1.00562 0.00107793 0)
(1.00639 0.0013134 0)
(1.00685 0.00200221 0)
(1.0076 0.00251155 0)
(1.00856 0.00300081 0)
(1.00943 0.00376137 0)
(1.01006 0.00471679 0)
(1.01053 0.00560584 0)
(1.0106 0.00637596 0)
(0.999594 0.000534603 0)
(1.00133 0.00173279 0)
(1.00308 -0.00166792 0)
(1.00171 1.75022e-05 0)
(1.00254 0.000460546 0)
(1.0039 -0.000870839 0)
(1.00331 0.000604304 0)
(1.00399 0.00104526 0)
(1.00519 0.000352231 0)
(1.0049 0.000967431 0)
(1.00475 0.00151267 0)
(1.00563 0.00126257 0)
(1.00651 0.00137617 0)
(1.00703 0.00203522 0)
(1.00776 0.00260546 0)
(1.00876 0.00306531 0)
(1.00971 0.00371683 0)
(1.01039 0.00458743 0)
(1.01086 0.00543975 0)
(1.01091 0.00615934 0)
(0.999643 0.000410823 0)
(1.00117 0.00167944 0)
(1.00295 -0.00153171 0)
(1.00179 -9.3887e-05 0)
(1.00247 0.000687332 0)
(1.00389 -0.000666656 0)
(1.00344 0.000562389 0)
(1.00398 0.00120988 0)
(1.00519 0.000513341 0)
(1.00502 0.000949884 0)
(1.0048 0.00159835 0)
(1.00564 0.00144434 0)
(1.00662 0.00145837 0)
(1.00721 0.00204908 0)
(1.00793 0.00266359 0)
(1.00895 0.0031168 0)
(1.00997 0.00367492 0)
(1.01071 0.00444782 0)
(1.01119 0.00525314 0)
(1.01121 0.00593097 0)
(0.99969 0.000302924 0)
(1.00102 0.00160499 0)
(1.00282 -0.00137636 0)
(1.00188 -0.000198835 0)
(1.00241 0.00089725 0)
(1.00387 -0.000408654 0)
(1.00357 0.000533297 0)
(1.00398 0.00133991 0)
(1.00518 0.000708128 0)
(1.00513 0.000960182 0)
(1.00488 0.00165377 0)
(1.00564 0.00161485 0)
(1.00672 0.00155994 0)
(1.0074 0.00205768 0)
(1.00812 0.00268975 0)
(1.00913 0.00315224 0)
(1.01022 0.00363745 0)
(1.01103 0.00430654 0)
(1.01151 0.0050501 0)
(1.0115 0.00568748 0)
(0.999734 0.000208397 0)
(1.00087 0.00152292 0)
(1.00268 -0.00119804 0)
(1.00198 -0.000292737 0)
(1.00238 0.00106888 0)
(1.00382 -0.000121643 0)
(1.00369 0.000530589 0)
(1.004 0.00143638 0)
(1.00516 0.000921722 0)
(1.00524 0.0010046 0)
(1.00498 0.00169076 0)
(1.00566 0.00177079 0)
(1.0068 0.00167918 0)
(1.00758 0.00207152 0)
(1.00832 0.00269055 0)
(1.00932 0.0031666 0)
(1.01045 0.0035987 0)
(1.01133 0.00416518 0)
(1.01183 0.00483281 0)
(1.01179 0.00542584 0)
(0.999775 0.000129796 0)
(1.00074 0.0014357 0)
(1.00254 -0.000982286 0)
(1.00208 -0.000374822 0)
(1.00237 0.00118743 0)
(1.00376 0.000184098 0)
(1.00381 0.000559702 0)
(1.00405 0.00150276 0)
(1.00513 0.00113695 0)
(1.00534 0.0010829 0)
(1.0051 0.00171549 0)
(1.0057 0.00190122 0)
(1.00687 0.00180358 0)
(1.00776 0.00208962 0)
(1.00853 0.00266732 0)
(1.00951 0.00315132 0)
(1.01067 0.00354798 0)
(1.0116 0.00402123 0)
(1.01214 0.00460416 0)
(1.01208 0.00514681 0)
(0.999812 6.5773e-05 0)
(1.00063 0.00134235 0)
(1.00239 -0.000733526 0)
(1.00218 -0.000422867 0)
(1.00239 0.00124712 0)
(1.0037 0.000504422 0)
(1.00391 0.000634529 0)
(1.00411 0.00154381 0)
(1.00511 0.00134085 0)
(1.00541 0.00119504 0)
(1.00522 0.00174014 0)
(1.00574 0.00200558 0)
(1.00692 0.00192788 0)
(1.00791 0.0021156 0)
(1.00874 0.00262757 0)
(1.00971 0.00310472 0)
(1.01087 0.00347791 0)
(1.01185 0.00387231 0)
(1.01243 0.00436875 0)
(1.01235 0.00485487 0)
(0.999846 2.2151e-05 0)
(1.00053 0.00124516 0)
(1.00223 -0.000478056 0)
(1.00227 -0.000427085 0)
(1.00244 0.00125985 0)
(1.00363 0.000810403 0)
(1.00399 0.000757348 0)
(1.00418 0.00156568 0)
(1.00509 0.0015168 0)
(1.00547 0.00133277 0)
(1.00535 0.00177443 0)
(1.0058 0.00208695 0)
(1.00696 0.00204683 0)
(1.00805 0.00215228 0)
(1.00895 0.00258079 0)
(1.0099 0.00303081 0)
(1.01106 0.00338426 0)
(1.01208 0.0037152 0)
(1.01269 0.0041295 0)
(1.01262 0.00455509 0)
(0.999876 -2.73031e-06 0)
(1.00045 0.00114497 0)
(1.00208 -0.000225289 0)
(1.00235 -0.000382043 0)
(1.00251 0.00124145 0)
(1.00358 0.00108207 0)
(1.00404 0.000923614 0)
(1.00425 0.00159547 0)
(1.00508 0.00166312 0)
(1.00551 0.00148423 0)
(1.00546 0.00182383 0)
(1.00587 0.00214985 0)
(1.007 0.00215167 0)
(1.00816 0.00219664 0)
(1.00913 0.0025335 0)
(1.0101 0.00293671 0)
(1.01123 0.00326563 0)
(1.01227 0.0035443 0)
(1.01293 0.00388285 0)
(1.01286 0.00424576 0)
(0.999902 -1.30902e-05 0)
(1.00038 0.00105043 0)
(1.00193 2.657e-05 0)
(1.00241 -0.000292091 0)
(1.0026 0.00120289 0)
(1.00353 0.00131863 0)
(1.00407 0.00112438 0)
(1.00432 0.00165283 0)
(1.00507 0.0017881 0)
(1.00554 0.00163434 0)
(1.00557 0.00188544 0)
(1.00594 0.00219787 0)
(1.00703 0.0022331 0)
(1.00824 0.00223838 0)
(1.00929 0.00248607 0)
(1.01027 0.00282983 0)
(1.0114 0.00312556 0)
(1.01245 0.0033567 0)
(1.01314 0.0036244 0)
(1.01308 0.00392243 0)
(0.999924 -1.31297e-05 0)
(1.00033 0.000976449 0)
(1.00179 0.000266991 0)
(1.00244 -0.000162615 0)
(1.0027 0.00115324 0)
(1.0035 0.00150907 0)
(1.00408 0.00134086 0)
(1.00438 0.00173421 0)
(1.00507 0.0019019 0)
(1.00555 0.00177928 0)
(1.00565 0.00195896 0)
(1.006 0.00223938 0)
(1.00706 0.00229326 0)
(1.0083 0.00227098 0)
(1.00942 0.00243823 0)
(1.01043 0.00271767 0)
(1.01154 0.00297294 0)
(1.01259 0.00315781 0)
(1.01331 0.00335787 0)
(1.01327 0.00358828 0)
(0.999943 1.76533e-06 0)
(1.00029 0.000902966 0)
(1.00165 0.000489838 0)
(1.00245 1.85524e-05 0)
(1.00281 0.00112622 0)
(1.00349 0.00166373 0)
(1.00408 0.00156994 0)
(1.00441 0.00184472 0)
(1.00507 0.00201664 0)
(1.00556 0.00192539 0)
(1.00572 0.00204846 0)
(1.00606 0.00228173 0)
(1.00707 0.00233843 0)
(1.00834 0.00229027 0)
(1.00952 0.00238497 0)
(1.01056 0.00259752 0)
(1.01166 0.00280757 0)
(1.0127 0.00294737 0)
(1.01344 0.0030835 0)
(1.01343 0.00324455 0)
(0.999958 3.28719e-05 0)
(1.00027 0.000826843 0)
(1.00153 0.000690071 0)
(1.00244 0.000244507 0)
(1.00291 0.0011398 0)
(1.0035 0.00178886 0)
(1.00407 0.00180353 0)
(1.00443 0.0019829 0)
(1.00506 0.00213832 0)
(1.00555 0.00206964 0)
(1.00576 0.00215436 0)
(1.0061 0.00232771 0)
(1.00707 0.00237408 0)
(1.00834 0.0022936 0)
(1.00958 0.00232182 0)
(1.01066 0.00246076 0)
(1.01175 0.00262263 0)
(1.01278 0.00271716 0)
(1.01353 0.0027953 0)
(1.01354 0.00288806 0)
(0.99997 6.81373e-05 0)
(1.00026 0.000772982 0)
(1.00143 0.000866029 0)
(1.00241 0.000489786 0)
(1.003 0.00119373 0)
(1.00353 0.00188642 0)
(1.00405 0.00202772 0)
(1.00444 0.0021488 0)
(1.00504 0.00227103 0)
(1.00553 0.00221288 0)
(1.00578 0.00226914 0)
(1.00613 0.00238255 0)
(1.00706 0.00240303 0)
(1.00832 0.00228491 0)
(1.0096 0.00224713 0)
(1.01072 0.00230658 0)
(1.01181 0.00241473 0)
(1.01282 0.00246353 0)
(1.01357 0.00248966 0)
(1.01361 0.00251848 0)
(0.99998 0.000105075 0)
(1.00025 0.000749423 0)
(1.00134 0.00101211 0)
(1.00237 0.000754837 0)
(1.00307 0.00129069 0)
(1.00357 0.00198456 0)
(1.00404 0.00223312 0)
(1.00442 0.00234416 0)
(1.00501 0.00241812 0)
(1.00549 0.00236119 0)
(1.00578 0.00238578 0)
(1.00612 0.00245225 0)
(1.00701 0.00243208 0)
(1.00826 0.00227532 0)
(1.00958 0.00216522 0)
(1.01074 0.00214428 0)
(1.01184 0.0021868 0)
(1.01283 0.00218964 0)
(1.01356 0.00216641 0)
(1.01362 0.00213637 0)
(0.999988 0.000145914 0)
(1.00025 0.000753255 0)
(1.00127 0.00113701 0)
(1.00232 0.00102316 0)
(1.00313 0.00143118 0)
(1.00361 0.002094 0)
(1.00403 0.00242955 0)
(1.00438 0.00255422 0)
(1.00496 0.00259111 0)
(1.00544 0.00251658 0)
(1.00575 0.00250802 0)
(1.00609 0.00253196 0)
(1.00693 0.00246993 0)
(1.00816 0.002267 0)
(1.00951 0.00208159 0)
(1.0107 0.00197449 0)
(1.01181 0.00194102 0)
(1.01279 0.00188942 0)
(1.01351 0.00181897 0)
(1.01357 0.00173329 0)
(0.999994 0.000188664 0)
(1.00026 0.000777367 0)
(1.00122 0.00125848 0)
(1.00226 0.00128297 0)
(1.00316 0.00161518 0)
(1.00366 0.00221827 0)
(1.00402 0.00262439 0)
(1.00434 0.00277117 0)
(1.00489 0.00278551 0)
(1.00536 0.00268314 0)
(1.00569 0.00263775 0)
(1.00602 0.00261638 0)
(1.00681 0.00251701 0)
(1.00801 0.00226204 0)
(1.00937 0.00200131 0)
(1.0106 0.00180012 0)
(1.01173 0.00168406 0)
(1.0127 0.00156704 0)
(1.0134 0.00144712 0)
(1.01347 0.00130925 0)
(0.999999 0.000232018 0)
(1.00027 0.000819368 0)
(1.00118 0.00137323 0)
(1.00221 0.00153985 0)
(1.00317 0.00183235 0)
(1.00369 0.00237027 0)
(1.00402 0.00281915 0)
(1.00428 0.0030018 0)
(1.00479 0.00300089 0)
(1.00526 0.00286923 0)
(1.0056 0.00278204 0)
(1.00592 0.00271208 0)
(1.00666 0.0025719 0)
(1.0078 0.00226638 0)
(1.00916 0.00192752 0)
(1.01043 0.00162721 0)
(1.01158 0.00141779 0)
(1.01254 0.00122682 0)
(1.01323 0.001048 0)
(1.0133 0.000858448 0)
(1 0.000275576 0)
(1.00027 0.000882997 0)
(1.00116 0.00148597 0)
(1.00215 0.00178606 0)
(1.00316 0.002074 0)
(1.00372 0.00255039 0)
(1.00401 0.00302077 0)
(1.00421 0.00324577 0)
(1.00467 0.00324334 0)
(1.00512 0.00308213 0)
(1.00547 0.00294766 0)
(1.00578 0.00282314 0)
(1.00645 0.00263647 0)
(1.00753 0.00227776 0)
(1.00887 0.00186109 0)
(1.01017 0.00145449 0)
(1.01134 0.00114031 0)
(1.01231 0.000860046 0)
(1.01299 0.000612522 0)
(1.01306 0.000363495 0)
(1.00001 0.000318992 0)
(1.00027 0.000960127 0)
(1.00114 0.00160925 0)
(1.0021 0.0020238 0)
(1.00313 0.00233869 0)
(1.00373 0.00276302 0)
(1.004 0.00323443 0)
(1.00413 0.0034977 0)
(1.00452 0.0035101 0)
(1.00494 0.00332348 0)
(1.0053 0.00313996 0)
(1.00559 0.00295632 0)
(1.0062 0.00271583 0)
(1.0072 0.00230146 0)
(1.0085 0.00180379 0)
(1.0098 0.00128407 0)
(1.011 0.000852541 0)
(1.01198 0.000462525 0)
(1.01267 0.00013056 0)
(1.01273 -0.000193082 0)
(1.00001 0.000363521 0)
(1.00027 0.00105273 0)
(1.00113 0.00173853 0)
(1.00205 0.00225831 0)
(1.00309 0.00261697 0)
(1.00371 0.00300454 0)
(1.00399 0.00346583 0)
(1.00405 0.00376078 0)
(1.00435 0.00380497 0)
(1.00473 0.00360592 0)
(1.00508 0.00337776 0)
(1.00535 0.0031283 0)
(1.00588 0.00282831 0)