/*--------------------------------*- C++ -*----------------------------------*\
| =========                 |                                                 |
| \\      /  F ield         | OpenFOAM: The Open Source CFD Toolbox           |
|  \\    /   O peration     | Version:  v2012                                 |
|   \\  /    A nd           | Website:  www.openfoam.com                      |
|    \\/     M anipulation  |                                                 |
\*---------------------------------------------------------------------------*/
FoamFile
{
    version     2.0;
    format      ascii;
    class       volScalarField;
    location    "2.95";
    object      p;
}
// * * * * * * * * * * * * * * * * * * * * * * * * * * * * * * * * * * * * * //

dimensions      [0 2 -2 0 0 0 0];


internalField   nonuniform List<scalar> 
17600
(
3.24803e-12
-0.000990867
-0.00178139
-0.000983842
-0.00188192
-0.00231417
-0.00278639
-0.00336516
-0.00393559
-0.0041432
-0.0044642
-0.00484591
-0.00526079
-0.00509562
-0.00495375
-0.00427799
-0.00357512
-0.00187161
9.28865e-05
0.00389591
1.55269e-06
-0.000991981
-0.00178151
-0.00098963
-0.00187966
-0.00231737
-0.00278484
-0.00336788
-0.003934
-0.00414589
-0.00446139
-0.00484939
-0.00525225
-0.00510189
-0.00494504
-0.00429176
-0.0035634
-0.0019339
0.000107249
0.00358742
3.6534e-06
-0.000993527
-0.00178162
-0.000996649
-0.00187723
-0.00232126
-0.00278265
-0.0033718
-0.00393175
-0.00414975
-0.00445787
-0.00485468
-0.00524524
-0.00511117
-0.00493618
-0.00431099
-0.003551
-0.00199558
0.000105031
0.00316549
5.68792e-06
-0.00099383
-0.00178182
-0.00100435
-0.0018747
-0.00232511
-0.00278068
-0.00337597
-0.00392979
-0.00415364
-0.0044547
-0.0048604
-0.00523869
-0.00512122
-0.00492784
-0.00433187
-0.00353953
-0.00205814
7.27365e-05
0.00275684
7.97822e-06
-0.000992649
-0.00178238
-0.00101298
-0.00187197
-0.00232918
-0.00277893
-0.00338051
-0.003928
-0.0041576
-0.00445147
-0.00486649
-0.00523182
-0.00513226
-0.00491901
-0.00435464
-0.00352965
-0.00212431
9.88815e-06
0.00236985
1.07222e-05
-0.000990281
-0.00178346
-0.00102261
-0.00186909
-0.00233364
-0.00277724
-0.00338548
-0.00392608
-0.00416169
-0.0044478
-0.00487303
-0.00522455
-0.00514434
-0.00490986
-0.00437944
-0.00352291
-0.0021945
-8.24312e-05
0.00200639
1.38856e-05
-0.00098709
-0.0017851
-0.00103317
-0.00186611
-0.00233848
-0.00277548
-0.00339083
-0.00392388
-0.0041659
-0.00444363
-0.00488005
-0.00521705
-0.00515737
-0.00490109
-0.0044057
-0.00352142
-0.00226815
-0.000202836
0.00166242
1.7393e-05
-0.000983402
-0.00178721
-0.00104452
-0.001863
-0.00234366
-0.00277355
-0.00339653
-0.00392137
-0.00417024
-0.00443899
-0.00488757
-0.00520958
-0.00517118
-0.00489349
-0.0044326
-0.00352746
-0.00234419
-0.000350272
0.00133171
2.12196e-05
-0.000979468
-0.00178962
-0.00105651
-0.0018597
-0.00234917
-0.00277138
-0.00340259
-0.00391857
-0.00417476
-0.00443398
-0.00489558
-0.00520238
-0.00518554
-0.0048879
-0.00445932
-0.00354299
-0.00242202
-0.000523296
0.00100801
2.53843e-05
-0.00097545
-0.00179218
-0.00106902
-0.00185618
-0.00235506
-0.002769
-0.00340902
-0.0039155
-0.00417943
-0.00442869
-0.004904
-0.00519576
-0.00520005
-0.00488524
-0.00448511
-0.00356964
-0.00250202
-0.000719241
0.000685905
2.99181e-05
-0.000971448
-0.00179476
-0.00108197
-0.00185243
-0.00236125
-0.00276641
-0.00341582
-0.00391221
-0.0041842
-0.00442326
-0.00491266
-0.00519015
-0.00521418
-0.0048864
-0.00450956
-0.0036086
-0.00258556
-0.000934259
0.000361168
3.48451e-05
-0.00096752
-0.00179728
-0.00109533
-0.00184845
-0.00236779
-0.00276365
-0.00342294
-0.00390877
-0.004189
-0.00441791
-0.00492127
-0.00518607
-0.00522734
-0.00489219
-0.00453265
-0.00366034
-0.00267501
-0.00116396
3.10711e-05
4.01797e-05
-0.000963694
-0.00179967
-0.00110908
-0.00184424
-0.00237468
-0.00276076
-0.00343033
-0.00390524
-0.00419368
-0.00441287
-0.00492948
-0.00518411
-0.00523901
-0.00490322
-0.00455493
-0.00372446
-0.0027734
-0.00140415
-0.000305513
4.59309e-05
-0.00095998
-0.00180191
-0.00112319
-0.00183982
-0.00238191
-0.00275779
-0.0034379
-0.00390174
-0.00419806
-0.00440847
-0.00493686
-0.00518485
-0.0052489
-0.00491978
-0.00457758
-0.00379976
-0.00288365
-0.00165158
-0.000648362
5.21042e-05
-0.000956376
-0.00180398
-0.00113765
-0.00183521
-0.00238945
-0.00275479
-0.00344555
-0.00389844
-0.00420188
-0.00440511
-0.004943
-0.00518873
-0.00525698
-0.00494219
-0.00459937
-0.00388422
-0.00300798
-0.00190436
-0.000996217
5.86997e-05
-0.000952866
-0.00180586
-0.00115241
-0.00183042
-0.00239728
-0.00275186
-0.0034531
-0.00389556
-0.00420481
-0.00440316
-0.00494761
-0.00519603
-0.00526365
-0.00497063
-0.00462838
-0.00397573
-0.00314793
-0.00216187
-0.00134706
6.57094e-05
-0.00094942
-0.00180754
-0.00116743
-0.00182552
-0.00240534
-0.00274914
-0.00346034
-0.00389336
-0.00420654
-0.00440295
-0.00495058
-0.00520684
-0.00526968
-0.00500421
-0.00466439
-0.0040736
-0.00330416
-0.00242431
-0.00169874
7.31156e-05
-0.000945987
-0.00180902
-0.00118264
-0.00182055
-0.00241353
-0.0027468
-0.003467
-0.0038921
-0.00420684
-0.00440466
-0.00495201
-0.005221
-0.00527614
-0.00504142
-0.0047091
-0.00417834
-0.00347605
-0.00269262
-0.00204958
8.08888e-05
-0.000942495
-0.00181032
-0.00119795
-0.00181564
-0.00242172
-0.00274505
-0.00347287
-0.00389194
-0.00420561
-0.00440841
-0.00495211
-0.00523762
-0.00528444
-0.00508132
-0.00476385
-0.00429066
-0.00366202
-0.00296792
-0.00239863
8.89813e-05
-0.00093884
-0.00181147
-0.00121323
-0.0018109
-0.00242975
-0.00274411
-0.00347773
-0.00389309
-0.00420273
-0.00441412
-0.00495115
-0.00525601
-0.0052962
-0.00512371
-0.00482975
-0.00441178
-0.00386032
-0.00325081
-0.00274567
9.7326e-05
-0.000934876
-0.00181252
-0.00122832
-0.00180648
-0.00243749
-0.00274413
-0.00348135
-0.00389575
-0.00419814
-0.00442143
-0.00494987
-0.00527576
-0.00531252
-0.00516873
-0.0049075
-0.00454357
-0.0040698
-0.00354118
-0.00309109
0.000105837
-0.000930408
-0.00181354
-0.00124309
-0.00180253
-0.0024448
-0.00274533
-0.00348354
-0.00389986
-0.00419213
-0.00442935
-0.00494912
-0.00529639
-0.00533385
-0.00521754
-0.00499742
-0.00468822
-0.00429041
-0.00383844
-0.00343572
0.000114373
-0.000925193
-0.00181461
-0.00125737
-0.00179915
-0.00245154
-0.00274784
-0.00348431
-0.00390513
-0.00418521
-0.00443744
-0.00494951
-0.00531741
-0.00536021
-0.00527129
-0.00509967
-0.00484782
-0.00452288
-0.00414213
-0.00378074
0.000122745
-0.000918906
-0.00181583
-0.001271
-0.0017965
-0.00245762
-0.00275168
-0.00348384
-0.00391105
-0.00417811
-0.00444511
-0.00495144
-0.00533862
-0.00539136
-0.00533087
-0.00521415
-0.00502438
-0.00476894
-0.00445275
-0.00412786
0.00013083
-0.000911157
-0.00181734
-0.00128385
-0.0017946
-0.00246322
-0.00275655
-0.00348262
-0.00391662
-0.00417185
-0.00445182
-0.00495498
-0.00536028
-0.00542779
-0.00539567
-0.00533942
-0.00521911
-0.00503148
-0.00477551
-0.00447982
0.000138426
-0.000901545
-0.00181918
-0.00129587
-0.00179346
-0.00246859
-0.00276205
-0.00348128
-0.00392102
-0.00416683
-0.00445759
-0.00495947
-0.00538242
-0.00546999
-0.00546512
-0.00547025
-0.00542514
-0.00531187
-0.00512599
-0.00484435
0.000145129
-0.000889553
-0.00182136
-0.001307
-0.00179477
-0.00247396
-0.00276772
-0.00348035
-0.00392415
-0.00416264
-0.00446325
-0.00496445
-0.00540431
-0.0055169
-0.00554077
-0.00560538
-0.00563991
-0.0055986
-0.00547975
-0.00525676
0.000150649
-0.000874617
-0.00182381
-0.00131733
-0.00179507
-0.00248007
-0.00277267
-0.00348053
-0.00392606
-0.00415871
-0.00446951
-0.00497059
-0.00542691
-0.00556748
-0.00562572
-0.00575505
-0.005868
-0.00589834
-0.00584353
-0.00566893
0.000154651
-0.000856211
-0.00182626
-0.00132718
-0.0017948
-0.00248806
-0.0027761
-0.00348206
-0.00392718
-0.00415428
-0.00447722
-0.00497823
-0.00545418
-0.00563737
-0.00572407
-0.00591205
-0.00610587
-0.00621055
-0.00621602
-0.00607685
0.000156666
-0.000833865
-0.00182827
-0.00133713
-0.00179316
-0.00249853
-0.00277799
-0.00348459
-0.00392942
-0.00414901
-0.00448742
-0.00499195
-0.00548888
-0.00571425
-0.00583244
-0.00607308
-0.00634904
-0.00653281
-0.00659534
-0.00648221
0.000156402
-0.000807203
-0.00182909
-0.00134811
-0.00178925
-0.00251177
-0.00277896
-0.00348702
-0.00393485
-0.00414318
-0.00450144
-0.00501546
-0.00552747
-0.00579592
-0.0059517
-0.00623899
-0.00659395
-0.00686154
-0.00698141
-0.00688574
0.000153638
-0.000776033
-0.00182771
-0.00136106
-0.00178268
-0.00252794
-0.00278044
-0.00348878
-0.00394497
-0.00413969
-0.00452047
-0.00504783
-0.00556694
-0.00588028
-0.00608273
-0.00641211
-0.00683819
-0.00719164
-0.00737132
-0.00728806
0.000148175
-0.000740466
-0.00182275
-0.00137659
-0.00177315
-0.00254683
-0.00278455
-0.0034897
-0.00396213
-0.00414096
-0.00454104
-0.00508559
-0.00560767
-0.00596611
-0.006225
-0.0065956
-0.00708172
-0.00751797
-0.00775995
-0.00768889
0.000139874
-0.000701
-0.00181251
-0.00139491
-0.00176099
-0.00256795
-0.00279345
-0.00349093
-0.00398788
-0.00414791
-0.00455835
-0.00512744
-0.00565326
-0.00605182
-0.00637469
-0.00679101
-0.00732708
-0.00783722
-0.00814207
-0.00808704
0.000128647
-0.000658444
-0.00179546
-0.0014159
-0.00174718
-0.00259129
-0.00280959
-0.00349418
-0.0040211
-0.00415832
-0.00457062
-0.00517302
-0.00570667
-0.00613669
-0.00652658
-0.00699776
-0.00757838
-0.00814878
-0.00851352
-0.00848011
0.000114627
-0.000613822
-0.00177053
-0.00143884
-0.00173282
-0.00261724
-0.00283623
-0.00350014
-0.00405711
-0.00417279
-0.00457826
-0.00522115
-0.00576945
-0.00622165
-0.00667695
-0.00721334
-0.00783866
-0.00845511
-0.00887206
-0.00886429
9.82668e-05
-0.000568277
-0.00173725
-0.00146296
-0.00171966
-0.00264629
-0.0028746
-0.00350667
-0.00409345
-0.00419314
-0.0045822
-0.00526967
-0.00584242
-0.00630912
-0.00682368
-0.00743379
-0.0081084
-0.00876007
-0.00921745
-0.00923517
8.01158e-05
-0.000522901
-0.00169593
-0.00148538
-0.00170934
-0.00267828
-0.00292349
-0.00351321
-0.00412914
-0.00422131
-0.00458395
-0.00531572
-0.00592593
-0.00640291
-0.00696564
-0.00765356
-0.0083856
-0.00906721
-0.00955145
-0.00958922
6.09332e-05
-0.000478626
-0.00164774
-0.00150757
-0.00170366
-0.00271161
-0.00298189
-0.0035205
-0.0041629
-0.00425835
-0.00458577
-0.00535657
-0.00601891
-0.00650737
-0.0071032
-0.00786657
-0.00866596
-0.00937851
-0.00987737
-0.00992529
4.17264e-05
-0.000436242
-0.00159461
-0.00152971
-0.00170344
-0.00274453
-0.00304923
-0.00353038
-0.00419351
-0.0043043
-0.0045909
-0.00538996
-0.00611807
-0.0066259
-0.00723919
-0.00806815
-0.00894312
-0.00969326
-0.0101989
-0.010245
2.33834e-05
-0.000396409
-0.00153858
-0.00155186
-0.00170426
-0.00277559
-0.0031247
-0.00354475
-0.00421826
-0.00435807
-0.00460301
-0.00541497
-0.00621853
-0.00675956
-0.00737905
-0.00825744
-0.00920988
-0.0100075
-0.0105182
-0.0105515
6.47226e-06
-0.000359366
-0.00148143
-0.00157493
-0.00170975
-0.0028035
-0.00320663
-0.00356517
-0.00423685
-0.00441775
-0.00462539
-0.00543273
-0.00631439
-0.00690599
-0.0075284
-0.00843724
-0.00946061
-0.0103149
-0.0108354
-0.0108487
-8.61284e-06
-0.000324699
-0.00142475
-0.00160085
-0.00172086
-0.00282699
-0.00329268
-0.00359269
-0.00424903
-0.00448101
-0.00466059
-0.00544618
-0.00640015
-0.0070597
-0.00769038
-0.00861153
-0.0096928
-0.0106092
-0.0111482
-0.0111396
-2.14106e-05
-0.000291904
-0.00136982
-0.00163182
-0.00173919
-0.00284496
-0.00338021
-0.00362826
-0.00425437
-0.00454473
-0.00471051
-0.00545961
-0.00647234
-0.00721402
-0.00786482
-0.00878518
-0.00990707
-0.0108851
-0.0114524
-0.0114252
-3.1531e-05
-0.000260807
-0.00131776
-0.00166931
-0.00176649
-0.00285711
-0.00346615
-0.00367257
-0.00425337
-0.00460501
-0.00477555
-0.00547806
-0.00653006
-0.00736185
-0.00804839
-0.00896234
-0.0101062
-0.011139
-0.0117424
-0.011704
-3.89594e-05
-0.000231576
-0.00126954
-0.00171392
-0.0018042
-0.00286406
-0.00354795
-0.00372635
-0.00424825
-0.00465723
-0.00485336
-0.00550682
-0.00657514
-0.0074964
-0.00823516
-0.00914498
-0.0102943
-0.0113698
-0.0120129
-0.0119722
-4.43395e-05
-0.00020507
-0.0012256
-0.00176428
-0.00185311
-0.0028669
-0.00362335
-0.00379051
-0.0042427
-0.00469708
-0.00493864
-0.00555016
-0.00661221
-0.00761274
-0.00841761
-0.00933211
-0.0104753
-0.0115785
-0.01226
-0.0122253
-4.88775e-05
-0.000183292
-0.00118484
-0.00181763
-0.00191321
-0.00286748
-0.00369096
-0.0038655
-0.00424106
-0.00472216
-0.00502439
-0.00560924
-0.00664763
-0.00770939
-0.00858808
-0.00951961
-0.0106518
-0.011768
-0.0124818
-0.012459
-5.34894e-05
-0.000167589
-0.00114709
-0.00187245
-0.00198447
-0.00286758
-0.0037489
-0.00395054
-0.00424769
-0.00473266
-0.00510279
-0.0056808
-0.00668713
-0.00778842
-0.00874025
-0.00970092
-0.0108238
-0.0119414
-0.0126787
-0.0126701
-5.87854e-05
-0.000157918
-0.00111534
-0.00192782
-0.00206704
-0.00286962
-0.00379562
-0.00404334
-0.00426672
-0.00473131
-0.00516675
-0.00575875
-0.00673389
-0.0078542
-0.00887033
-0.00986861
-0.0109884
-0.0121008
-0.0128525
-0.0128574
-6.60775e-05
-0.000155475
-0.00109334
-0.00198257
-0.00216065
-0.00287646
-0.00382978
-0.00414009
-0.0043017
-0.00472273
-0.00521136
-0.00583514
-0.00678743
-0.00791142
-0.00897748
-0.0100162
-0.0111403
-0.012246
-0.013005
-0.0130208
-7.74252e-05
-0.000161194
-0.00106867
-0.00203481
-0.00226475
-0.00289177
-0.00385095
-0.00423559
-0.00435472
-0.00471307
-0.00523419
-0.0059009
-0.00684369
-0.00796301
-0.00906315
-0.0101397
-0.0112736
-0.0123744
-0.0131365
-0.013161
-9.38621e-05
-0.00017591
-0.00104897
-0.00208373
-0.0023788
-0.00291935
-0.00385955
-0.00432338
-0.00442494
-0.00470928
-0.00523611
-0.00594743
-0.00689578
-0.00800912
-0.0091301
-0.0102372
-0.0113827
-0.0124813
-0.0132451
-0.0132772
-0.000115298
-0.000200579
-0.00103753
-0.00212946
-0.00250117
-0.00296228
-0.00385791
-0.00439699
-0.00450765
-0.00471788
-0.00522156
-0.00596801
-0.00693459
-0.00804652
-0.0091798
-0.0103083
-0.011463
-0.0125609
-0.0133267
-0.0133675
-0.00014213
-0.000236306
-0.00103684
-0.00217114
-0.00262938
-0.00302348
-0.00385072
-0.0044514
-0.00459509
-0.00474276
-0.00519803
-0.00595921
-0.00695001
-0.0080687
-0.00921057
-0.0103517
-0.0115114
-0.0126069
-0.0133763
-0.0134277
-0.000175957
-0.000284194
-0.00104874
-0.00220906
-0.00276032
-0.00310516
-0.00384405
-0.00448366
-0.00467812
-0.00478297
-0.00517336
-0.00592249
-0.0069333
-0.00806653
-0.00921768
-0.0103659
-0.0115259
-0.012616
-0.0133882
-0.0134519
-0.000218816
-0.000344554
-0.00107529
-0.00224491
-0.00289069
-0.00320774
-0.00384501
-0.0044944
-0.00474747
-0.0048324
-0.00515281
-0.00586323
-0.00687903
-0.00802954
-0.0091936
-0.0103473
-0.0115037
-0.0125853
-0.013357
-0.0134342
-0.000272305
-0.000417678
-0.0011186
-0.00228202
-0.00301784
-0.00332908
-0.00386018
-0.00448831
-0.00479557
-0.0048819
-0.00513717
-0.00578724
-0.00678577
-0.00794818
-0.00912824
-0.0102886
-0.011439
-0.0125107
-0.0132799
-0.0133696
-0.000337993
-0.000505285
-0.00118088
-0.00232419
-0.00313936
-0.00346522
-0.00389453
-0.00447235
-0.00481893
-0.00492178
-0.00512267
-0.00569781
-0.00665434
-0.00781506
-0.00901005
-0.0101795
-0.0113256
-0.0123867
-0.0131522
-0.0132548
-0.000417951
-0.000607
-0.00126535
-0.00237572
-0.00325448
-0.00361178
-0.003951
-0.0044542
-0.00481787
-0.00494334
-0.00510206
-0.00559482
-0.0064858
-0.0076248
-0.00882766
-0.0100078
-0.0111527
-0.0122047
-0.012967
-0.013083
-0.000514712
-0.000724325
-0.00137224
-0.0024415
-0.00336463
-0.00376461
-0.0040302
-0.0044414
-0.00479481
-0.00493978
-0.00506732
-0.00547538
-0.00628062
-0.00737335
-0.00856947
-0.00975777
-0.0109045
-0.0119508
-0.0127126
-0.0128415
-0.000630978
-0.000858207
-0.00150236
-0.00252658
-0.0034729
-0.00392014
-0.0041312
-0.00444083
-0.00475534
-0.0049075
-0.00501037
-0.00533479
-0.0060369
-0.00705628
-0.00822257
-0.00940872
-0.010558
-0.011602
-0.0123605
-0.0125055
-0.000769519
-0.00101015
-0.001656
-0.00263533
-0.00358377
-0.00407541
-0.00425188
-0.00445904
-0.0047082
-0.00484823
-0.00492472
-0.00516626
-0.00575036
-0.00666604
-0.00777145
-0.00893478
-0.0100778
-0.0111169
-0.0118818
-0.0120539
-0.000933268
-0.00118205
-0.00183398
-0.00277032
-0.00370261
-0.00422921
-0.00438828
-0.00450167
-0.004666
-0.00477012
-0.0048096
-0.00496284
-0.00541217
-0.00619024
-0.00719593
-0.00830291
-0.00942038
-0.0104563
-0.0112378
-0.0114535
-0.00112832
-0.00137817
-0.0020344
-0.00293107
-0.003835
-0.00438272
-0.00453565
-0.00457081
-0.00464184
-0.00468921
-0.00467419
-0.00472227
-0.00501072
-0.005611
-0.00646792
-0.00746862
-0.00852852
-0.00955251
-0.0103654
-0.0106557
-0.00136621
-0.00160481
-0.00225298
-0.00311597
-0.00398563
-0.00453843
-0.00469135
-0.00466478
-0.00464444
-0.00462405
-0.00454444
-0.00445999
-0.00454497
-0.00490866
-0.00554293
-0.00636661
-0.00731114
-0.00829847
-0.00916227
-0.00958569
-0.00164956
-0.00187941
-0.00248846
-0.0033257
-0.00415806
-0.00469875
-0.00485148
-0.00478092
-0.0046795
-0.00458442
-0.00444612
-0.00423976
-0.00405672
-0.00406393
-0.00432541
-0.00483971
-0.0055641
-0.00645581
-0.00740793
-0.00809047
-0.00195849
-0.00217539
-0.00278256
-0.00358465
-0.00435646
-0.00486343
-0.00501017
-0.00491711
-0.00475582
-0.00457585
-0.00438647
-0.00414293
-0.00376969
-0.00326453
-0.00276604
-0.00248384
-0.00259052
-0.00312367
-0.00397062
-0.00490011
-0.00229608
-0.00250962
-0.0031376
-0.00389358
-0.00457937
-0.00503013
-0.00516348
-0.00506929
-0.00488292
-0.00462873
-0.00429549
-0.00403212
-0.00391789
-0.0034467
-0.00228417
-0.000962599
1.12184e-06
0.000558205
0.000924167
0.00113751
-0.00271192
-0.00291271
-0.00350921
-0.00421316
-0.00481235
-0.00519372
-0.00530585
-0.00520781
-0.00503024
-0.00482041
-0.00419826
-0.00294204
-0.00158504
-0.000454813
0.000428781
0.00123397
0.00208239
0.00293711
0.00360409
0.00376103
-0.00323341
-0.00339429
-0.00389816
-0.00451859
-0.00502907
-0.00533099
-0.0054109
-0.00528192
-0.00467884
-0.00357359
-0.00241839
-0.00141862
-0.000595386
0.000166969
0.00101425
0.00199518
0.0030592
0.00407029
0.00479277
0.00487496
-0.00384983
-0.00396708
-0.00434886
-0.00479157
-0.00513898
-0.00536181
-0.00512551
-0.00437261
-0.00348713
-0.00267554
-0.00196132
-0.00125364
-0.000419813
0.000569845
0.00168457
0.00287871
0.00407728
0.00513997
0.0058404
0.00584196
-0.00456605
-0.00463876
-0.0049036
-0.00502403
-0.00487363
-0.00458536
-0.00418755
-0.0036973
-0.00314622
-0.00253547
-0.00182048
-0.00096206
5.61827e-05
0.0012085
0.00245144
0.00373195
0.00496958
0.00602629
0.00668113
0.00660154
-0.00537666
-0.0054366
-0.00513117
-0.0047445
-0.00437939
-0.00406381
-0.00377935
-0.00343098
-0.00294549
-0.00229562
-0.00147917
-0.000509034
0.000592917
0.00180746
0.00310287
0.00441932
0.00566281
0.00669154
0.00728742
0.00712629
-0.00602429
-0.00591333
-0.00536628
-0.00470171
-0.00415745
-0.00377461
-0.00346464
-0.00310985
-0.00260951
-0.0019288
-0.00107521
-6.96832e-05
0.00106699
0.00231111
0.00362327
0.00494194
0.0061726
0.00717108
0.00771951
0.00749732
-0.00651716
-0.00630876
-0.00563787
-0.00479953
-0.00406479
-0.00353182
-0.00313401
-0.00273521
-0.00222695
-0.00155416
-0.000703993
0.000309523
0.00146091
0.00271732
0.00403468
0.00534949
0.00656612
0.00753954
0.0080522
0.00778551
-0.00693118
-0.00665351
-0.00587352
-0.00489672
-0.00400481
-0.00333097
-0.00283537
-0.00239359
-0.00188264
-0.00122242
-0.000383881
0.00062679
0.0017831
0.00304643
0.00436702
0.0056777
0.00688143
0.00783358
0.00831786
0.00801759
-0.00726647
-0.00693404
-0.00607
-0.00498433
-0.00396911
-0.00318103
-0.00260171
-0.00211566
-0.00159261
-0.000941577
-0.000117367
0.000884983
0.0020414
0.00330815
0.00463005
0.00593625
0.00712877
0.00806362
0.00852613
0.00820136
-0.00751765
-0.00714993
-0.00622273
-0.00506069
-0.00396231
-0.00309221
-0.00244541
-0.00191367
-0.00136523
-0.000701986
0.000124951
0.00112377
0.00227355
0.00353461
0.00485049
0.00614818
0.00732964
0.00825048
0.00869688
0.00835465
-0.007672
-0.0072905
-0.00633825
-0.00514005
-0.00399906
-0.00308506
-0.00239564
-0.00182723
-0.00125124
-0.000567551
0.000278735
0.00129528
0.0024574
0.00372089
0.00503049
0.00631575
0.00748885
0.00840047
0.00883955
0.00849212
0.00794589
0.00305949
-0.00416675
-0.0092877
-0.0103415
-0.00904338
-0.00750173
-0.00644254
-0.00584682
-0.00555191
-0.00543668
-0.00542877
-0.0054841
-0.00557529
-0.00568517
-0.0058027
-0.00592047
-0.00603255
-0.00613388
-0.00622234
-0.00630019
-0.00637164
-0.00643953
-0.00650494
-0.00656857
-0.00663165
-0.00669555
-0.00676105
-0.00682796
-0.00689603
-0.00696558
-0.00703686
-0.00710921
-0.00718149
-0.00725283
-0.0073232
-0.00739251
-0.00746044
-0.00752655
-0.00759074
-0.00765329
-0.00771451
-0.00777461
-0.00783348
-0.00789085
-0.00794686
-0.00800193
-0.00805645
-0.00811049
-0.00816365
-0.00821565
-0.00826658
-0.00831681
-0.00836647
-0.00841537
-0.00846309
-0.00850971
-0.00855557
-0.00860099
-0.0086458
-0.0086897
-0.00873256
-0.00877469
-0.00881647
-0.00885796
-0.00889892
-0.00893915
-0.0089788
-0.00901804
-0.00905704
-0.00909573
-0.00913415
-0.00917206
-0.00920946
-0.00924622
-0.00928258
-0.00931846
-0.00935398
-0.00938896
-0.00942353
-0.00945762
-0.00949143
-0.00952491
-0.00955822
-0.00959134
-0.00962436
-0.0096572
-0.00968979
-0.0097222
-0.00975442
-0.00978661
-0.00981853
-0.00985034
-0.00988179
-0.00991318
-0.00994419
-0.00997511
-0.0100057
-0.0100363
-0.0100665
-0.0100963
-0.0101257
-0.0101549
-0.0101838
-0.0102123
-0.0102406
-0.0102685
-0.0102963
-0.0103238
-0.0103513
-0.0103785
-0.0104057
-0.0104326
-0.0104594
-0.010486
-0.0105125
-0.0105388
-0.0105649
-0.010591
-0.0106169
-0.010643
-0.0106688
-0.0106947
-0.01072
-0.0107454
-0.0107701
-0.0107948
-0.0108191
-0.0108434
-0.0108673
-0.0108909
-0.0109146
-0.0109378
-0.0109612
-0.0109838
-0.0110066
-0.0110283
-0.0110503
-0.0110717
-0.0110932
-0.0111145
-0.0111353
-0.0111564
-0.0111766
-0.011197
-0.0112161
-0.0112359
-0.0112546
-0.011274
-0.0112928
-0.0113116
-0.01133
-0.0113476
-0.0113659
-0.0113828
-0.0114004
-0.0114168
-0.0114341
-0.0114506
-0.0114665
-0.0114825
-0.0114972
-0.011513
-0.0115267
-0.0115419
-0.0115551
-0.0115691
-0.0115817
-0.0115936
-0.0116062
-0.0116165
-0.0116291
-0.0116379
-0.0116487
-0.011657
-0.0116655
-0.0116738
-0.0116794
-0.0116872
-0.0116907
-0.0116968
-0.0116992
-0.0117024
-0.0117052
-0.0117048
-0.0117072
-0.0117036
-0.0117042
-0.0117001
-0.0116959
-0.0116927
-0.011683
-0.0116784
-0.0116673
-0.0116569
-0.0116473
-0.0116326
-0.0116245
-0.0116106
-0.0116089
0.00721144
0.00287571
-0.00409227
-0.00915009
-0.0102578
-0.00900379
-0.0074769
-0.00642479
-0.00583388
-0.005542
-0.00542865
-0.005422
-0.00547824
-0.00557014
-0.00568059
-0.0057986
-0.00591677
-0.00602921
-0.00613085
-0.00621958
-0.00629767
-0.00636932
-0.00643739
-0.00650296
-0.00656672
-0.00662992
-0.00669393
-0.00675952
-0.00682651
-0.00689467
-0.00696428
-0.00703562
-0.00710803
-0.00718036
-0.00725176
-0.00732217
-0.00739153
-0.0074595
-0.00752565
-0.00758988
-0.00765245
-0.00771371
-0.00777384
-0.00783273
-0.00789014
-0.00794617
-0.00800126
-0.00805581
-0.00810988
-0.00816305
-0.00821507
-0.00826603
-0.00831627
-0.00836595
-0.00841487
-0.00846261
-0.00850925
-0.00855513
-0.00860056
-0.00864538
-0.0086893
-0.00873217
-0.00877431
-0.0088161
-0.00885761
-0.00889858
-0.00893881
-0.00897847
-0.00901773
-0.00905674
-0.00909544
-0.00913386
-0.00917178
-0.00920918
-0.00924596
-0.00928232
-0.0093182
-0.00935374
-0.00938872
-0.0094233
-0.00945739
-0.00949121
-0.00952469
-0.00955801
-0.00959114
-0.00962416
-0.009657
-0.0096896
-0.00972202
-0.00975424
-0.00978643
-0.00981836
-0.00985017
-0.00988162
-0.00991302
-0.00994403
-0.00997496
-0.0100056
-0.0100362
-0.0100663
-0.0100962
-0.0101256
-0.0101548
-0.0101837
-0.0102122
-0.0102404
-0.0102683
-0.0102962
-0.0103237
-0.0103512
-0.0103784
-0.0104056
-0.0104325
-0.0104593
-0.0104859
-0.0105124
-0.0105387
-0.0105648
-0.0105909
-0.0106168
-0.0106429
-0.0106687
-0.0106946
-0.0107199
-0.0107453
-0.01077
-0.0107947
-0.0108191
-0.0108433
-0.0108673
-0.0108909
-0.0109146
-0.0109377
-0.0109612
-0.0109837
-0.0110065
-0.0110282
-0.0110502
-0.0110716
-0.0110931
-0.0111144
-0.0111353
-0.0111564
-0.0111765
-0.0111969
-0.0112161
-0.0112359
-0.0112546
-0.0112739
-0.0112927
-0.0113115
-0.0113299
-0.0113476
-0.0113658
-0.0113828
-0.0114003
-0.0114167
-0.011434
-0.0114505
-0.0114665
-0.0114825
-0.0114972
-0.011513
-0.0115266
-0.0115419
-0.011555
-0.011569
-0.0115817
-0.0115936
-0.0116061
-0.0116165
-0.011629
-0.0116379
-0.0116486
-0.0116569
-0.0116655
-0.0116738
-0.0116794
-0.0116872
-0.0116907
-0.0116967
-0.0116991
-0.0117024
-0.0117052
-0.0117048
-0.0117072
-0.0117036
-0.0117042
-0.0117001
-0.0116959
-0.0116927
-0.011683
-0.0116783
-0.0116673
-0.0116569
-0.0116473
-0.0116326
-0.0116245
-0.0116105
-0.0116089
0.00644119
0.00269029
-0.00392676
-0.0088909
-0.0101059
-0.00894439
-0.00744589
-0.00640095
-0.00581494
-0.0055274
-0.00541734
-0.00541299
-0.00547086
-0.00556394
-0.00567526
-0.00579393
-0.00591263
-0.00602549
-0.0061275
-0.00621655
-0.00629492
-0.00636682
-0.00643511
-0.00650087
-0.00656479
-0.00662812
-0.00669226
-0.00675796
-0.00682504
-0.00689328
-0.00696298
-0.00703438
-0.00710686
-0.00717925
-0.0072507
-0.00732116
-0.00739056
-0.00745858
-0.00752476
-0.00758903
-0.00765164
-0.00771293
-0.00777309
-0.00783201
-0.00788944
-0.0079455
-0.00800061
-0.00805518
-0.00810927
-0.00816247
-0.00821451
-0.00826549
-0.00831575
-0.00836545
-0.00841439
-0.00846214
-0.0085088
-0.00855469
-0.00860013
-0.00864497
-0.00868891
-0.00873178
-0.00877394
-0.00881574
-0.00885726
-0.00889824
-0.00893849
-0.00897815
-0.00901742
-0.00905644
-0.00909515
-0.00913358
-0.00917151
-0.00920892
-0.0092457
-0.00928207
-0.00931796
-0.0093535
-0.00938849
-0.00942308
-0.00945717
-0.009491
-0.00952448
-0.0095578
-0.00959094
-0.00962397
-0.00965682
-0.00968942
-0.00972184
-0.00975407
-0.00978626
-0.00981819
-0.00985001
-0.00988147
-0.00991286
-0.00994388
-0.00997481
-0.0100054
-0.010036
-0.0100662
-0.010096
-0.0101254
-0.0101546
-0.0101835
-0.0102121
-0.0102403
-0.0102682
-0.0102961
-0.0103236
-0.0103511
-0.0103783
-0.0104055
-0.0104324
-0.0104592
-0.0104858
-0.0105123
-0.0105386
-0.0105647
-0.0105908
-0.0106167
-0.0106429
-0.0106686
-0.0106945
-0.0107199
-0.0107453
-0.01077
-0.0107946
-0.010819
-0.0108432
-0.0108672
-0.0108908
-0.0109145
-0.0109376
-0.0109611
-0.0109837
-0.0110064
-0.0110282
-0.0110502
-0.0110716
-0.0110931
-0.0111143
-0.0111352
-0.0111563
-0.0111765
-0.0111969
-0.011216
-0.0112358
-0.0112545
-0.0112739
-0.0112927
-0.0113115
-0.0113299
-0.0113475
-0.0113658
-0.0113827
-0.0114003
-0.0114167
-0.011434
-0.0114505
-0.0114664
-0.0114824
-0.0114971
-0.011513
-0.0115266
-0.0115418
-0.011555
-0.011569
-0.0115817
-0.0115935
-0.0116061
-0.0116165
-0.011629
-0.0116379
-0.0116486
-0.0116569
-0.0116655
-0.0116737
-0.0116794
-0.0116872
-0.0116907
-0.0116967
-0.0116991
-0.0117024
-0.0117052
-0.0117048
-0.0117072
-0.0117035
-0.0117042
-0.0117001
-0.0116958
-0.0116927
-0.011683
-0.0116783
-0.0116673
-0.0116569
-0.0116473
-0.0116325
-0.0116245
-0.0116105
-0.0116089
0.00570991
0.00252467
-0.003695
-0.00854941
-0.00989557
-0.00886045
-0.00740257
-0.00636589
-0.00578599
-0.00550525
-0.00540076
-0.00540029
-0.00546075
-0.00555562
-0.00566824
-0.00578786
-0.00590727
-0.00602068
-0.00612315
-0.00621263
-0.00629141
-0.00636368
-0.00643229
-0.00649832
-0.00656247
-0.00662601
-0.00669032
-0.00675618
-0.00682339
-0.00689175
-0.00696154
-0.00703304
-0.0071056
-0.00717806
-0.00724957
-0.00732009
-0.00738954
-0.00745761
-0.00752384
-0.00758815
-0.0076508
-0.00771212
-0.00777231
-0.00783126
-0.00788872
-0.0079448
-0.00799995
-0.00805454
-0.00810865
-0.00816187
-0.00821393
-0.00826493
-0.00831522
-0.00836493
-0.00841389
-0.00846167
-0.00850834
-0.00855424
-0.0085997
-0.00864456
-0.0086885
-0.0087314
-0.00877356
-0.00881538
-0.00885691
-0.0088979
-0.00893816
-0.00897784
-0.00901711
-0.00905614
-0.00909486
-0.0091333
-0.00917123
-0.00920865
-0.00924544
-0.00928182
-0.00931772
-0.00935326
-0.00938826
-0.00942285
-0.00945695
-0.00949078
-0.00952428
-0.0095576
-0.00959074
-0.00962378
-0.00965663
-0.00968923
-0.00972166
-0.00975389
-0.0097861
-0.00981803
-0.00984985
-0.00988131
-0.00991271
-0.00994373
-0.00997466
-0.0100053
-0.0100359
-0.0100661
-0.0100959
-0.0101253
-0.0101545
-0.0101834
-0.010212
-0.0102402
-0.0102681
-0.010296
-0.0103235
-0.010351
-0.0103782
-0.0104054
-0.0104323
-0.0104591
-0.0104857
-0.0105122
-0.0105385
-0.0105646
-0.0105907
-0.0106166
-0.0106428
-0.0106685
-0.0106944
-0.0107198
-0.0107452
-0.0107699
-0.0107946
-0.0108189
-0.0108431
-0.0108671
-0.0108907
-0.0109144
-0.0109376
-0.010961
-0.0109836
-0.0110064
-0.0110281
-0.0110501
-0.0110715
-0.011093
-0.0111143
-0.0111352
-0.0111563
-0.0111764
-0.0111968
-0.011216
-0.0112358
-0.0112545
-0.0112738
-0.0112926
-0.0113114
-0.0113298
-0.0113475
-0.0113657
-0.0113827
-0.0114002
-0.0114166
-0.0114339
-0.0114504
-0.0114664
-0.0114824
-0.0114971
-0.0115129
-0.0115265
-0.0115418
-0.0115549
-0.0115689
-0.0115816
-0.0115935
-0.0116061
-0.0116164
-0.011629
-0.0116378
-0.0116486
-0.0116569
-0.0116654
-0.0116737
-0.0116794
-0.0116871
-0.0116906
-0.0116967
-0.0116991
-0.0117023
-0.0117052
-0.0117048
-0.0117072
-0.0117035
-0.0117041
-0.0117
-0.0116958
-0.0116926
-0.0116829
-0.0116783
-0.0116673
-0.0116569
-0.0116473
-0.0116325
-0.0116244
-0.0116105
-0.0116089
0.0050094
0.00234976
-0.00344519
-0.00817911
-0.00966
-0.00876529
-0.00735329
-0.00632273
-0.00574779
-0.00547499
-0.00537782
-0.00538264
-0.00544669
-0.00554407
-0.00565851
-0.00577948
-0.00589987
-0.00601399
-0.00611704
-0.00620708
-0.00628643
-0.00635924
-0.00642834
-0.00649479
-0.0065593
-0.00662316
-0.00668775
-0.00675384
-0.00682126
-0.0068898
-0.00695975
-0.00703137
-0.00710405
-0.0071766
-0.0072482
-0.0073188
-0.00738833
-0.00745645
-0.00752275
-0.00758712
-0.00764982
-0.00771119
-0.00777141
-0.0078304
-0.00788789
-0.00794401
-0.00799918
-0.0080538
-0.00810794
-0.00816118
-0.00821327
-0.00826429
-0.0083146
-0.00836434
-0.00841332
-0.00846112
-0.00850781
-0.00855374
-0.00859922
-0.00864409
-0.00868805
-0.00873096
-0.00877314
-0.00881497
-0.00885652
-0.00889752
-0.00893779
-0.00897748
-0.00901677
-0.00905581
-0.00909453
-0.00913299
-0.00917093
-0.00920836
-0.00924516
-0.00928155
-0.00931745
-0.009353
-0.009388
-0.0094226
-0.00945671
-0.00949055
-0.00952405
-0.00955738
-0.00959053
-0.00962357
-0.00965643
-0.00968904
-0.00972147
-0.00975371
-0.00978591
-0.00981785
-0.00984967
-0.00988114
-0.00991254
-0.00994357