/*--------------------------------*- C++ -*----------------------------------*\
| =========                 |                                                 |
| \\      /  F ield         | OpenFOAM: The Open Source CFD Toolbox           |
|  \\    /   O peration     | Version:  v2012                                 |
|   \\  /    A nd           | Website:  www.openfoam.com                      |
|    \\/     M anipulation  |                                                 |
\*---------------------------------------------------------------------------*/
FoamFile
{
    version     2.0;
    format      ascii;
    class       volScalarField;
    location    "3.65";
    object      p;
}
// * * * * * * * * * * * * * * * * * * * * * * * * * * * * * * * * * * * * * //

dimensions      [0 2 -2 0 0 0 0];


internalField   nonuniform List<scalar> 
17600
(
-2.29788e-10
0.000144609
-0.000764121
-0.000952908
-0.000940945
-0.00155042
-0.00200573
-0.00234627
-0.0028054
-0.00324783
-0.00326764
-0.00353299
-0.00338442
-0.00385406
-0.00330253
-0.00325471
-0.00207362
-0.000910243
0.00136686
0.00510612
1.26661e-06
0.000144672
-0.000763605
-0.000955458
-0.000940819
-0.00155221
-0.00200527
-0.00234814
-0.00280458
-0.00325055
-0.00326628
-0.00353744
-0.00338201
-0.00386296
-0.00329793
-0.0032724
-0.00206309
-0.000951867
0.00138906
0.00485596
3.48541e-06
0.000144391
-0.000763608
-0.000959089
-0.00094031
-0.00155489
-0.00200449
-0.00235091
-0.00280351
-0.00325495
-0.00326486
-0.00354469
-0.00338036
-0.00387682
-0.0032943
-0.0032974
-0.00205208
-0.00100643
0.00139862
0.00444953
6.64281e-06
0.000144001
-0.000764713
-0.000962589
-0.00093966
-0.00155779
-0.00200378
-0.00235378
-0.00280275
-0.00326003
-0.00326424
-0.00355304
-0.0033806
-0.00389187
-0.0032938
-0.003321
-0.00204711
-0.00105531
0.00137268
0.00404935
1.12135e-05
0.000143447
-0.000766992
-0.000965983
-0.000938996
-0.00156095
-0.00200313
-0.00235675
-0.00280217
-0.00326572
-0.00326386
-0.00356216
-0.00338102
-0.00390785
-0.00329339
-0.00334414
-0.00204574
-0.00110153
0.00130967
0.00367698
1.73832e-05
0.000142456
-0.000770401
-0.000969435
-0.000938299
-0.00156438
-0.0020024
-0.00235985
-0.00280157
-0.00327189
-0.00326325
-0.00357174
-0.00338103
-0.00392455
-0.00329268
-0.00336788
-0.00204772
-0.00114889
0.00121199
0.00333289
2.49577e-05
0.000140839
-0.000774736
-0.000973009
-0.00093749
-0.00156802
-0.0020015
-0.00236306
-0.00280085
-0.00327845
-0.00326237
-0.00358163
-0.00338106
-0.0039416
-0.0032934
-0.00339128
-0.00205612
-0.00119801
0.00108235
0.00300826
3.35815e-05
0.000138593
-0.000779689
-0.000976743
-0.000936486
-0.0015718
-0.00200038
-0.00236639
-0.00280001
-0.00328538
-0.00326132
-0.00359187
-0.00338154
-0.00395884
-0.00329697
-0.003413
-0.00207458
-0.00124765
0.00092263
0.00269463
4.2944e-05
0.000135826
-0.000784993
-0.000980687
-0.000935236
-0.00157573
-0.00199906
-0.00236988
-0.00279911
-0.00329273
-0.00326022
-0.00360244
-0.00338278
-0.00397605
-0.00330424
-0.0034323
-0.0021054
-0.00129717
0.000734509
0.0023845
5.28599e-05
0.000132666
-0.000790474
-0.000984888
-0.000933728
-0.00157982
-0.00199758
-0.00237356
-0.00279821
-0.00330048
-0.00325919
-0.00361323
-0.00338519
-0.00399272
-0.00331621
-0.00344872
-0.00214948
-0.00134723
0.000520691
0.00207159
6.32556e-05
0.000129214
-0.000796037
-0.000989382
-0.000931974
-0.00158407
-0.00199597
-0.00237744
-0.00279738
-0.00330856
-0.00325838
-0.00362396
-0.00338926
-0.00400819
-0.00333395
-0.00346201
-0.00220739
-0.00139713
0.000285866
0.00175097
7.41242e-05
0.000125532
-0.000801627
-0.000994197
-0.000929995
-0.00158847
-0.00199427
-0.00238151
-0.00279668
-0.00331684
-0.003258
-0.0036343
-0.00339563
-0.00402182
-0.00335844
-0.00347224
-0.00227987
-0.00145577
3.65695e-05
0.00141953
8.54848e-05
0.000121651
-0.000807204
-0.000999352
-0.000927809
-0.00159299
-0.00199251
-0.00238572
-0.0027962
-0.00332514
-0.00325833
-0.0036438
-0.00340496
-0.00403306
-0.00339048
-0.00347989
-0.00236653
-0.00152483
-0.000221016
0.00107601
9.736e-05
0.000117587
-0.000812732
-0.00100486
-0.000925436
-0.00159759
-0.00199076
-0.00239002
-0.00279608
-0.00333323
-0.00325972
-0.00365202
-0.00341785
-0.0040417
-0.00343043
-0.00348636
-0.00246575
-0.00160843
-0.000482317
0.000720793
0.000109767
0.000113349
-0.000818177
-0.00101073
-0.000922899
-0.00160222
-0.00198909
-0.00239431
-0.00279649
-0.00334085
-0.00326252
-0.00365861
-0.00343472
-0.00404782
-0.00347802
-0.00349398
-0.0025753
-0.0017097
-0.000744509
0.000355567
0.000122713
0.000108958
-0.000823499
-0.00101694
-0.000920236
-0.00160681
-0.00198758
-0.00239842
-0.00279766
-0.00334768
-0.00326712
-0.00366326
-0.00345589
-0.00405188
-0.00353264
-0.00350528
-0.0026927
-0.00183086
-0.00100669
-1.71105e-05
0.000136194
0.000104444
-0.000828664
-0.00102349
-0.000917499
-0.00161128
-0.00198641
-0.00240218
-0.00279985
-0.00335344
-0.0032738
-0.00366584
-0.00348142
-0.00405466
-0.00359351
-0.00352409
-0.00281595
-0.0019731
-0.00126932
-0.000394371
0.000150191
9.9856e-05
-0.000833639
-0.00103033
-0.00091477
-0.00161548
-0.00198576
-0.00240536
-0.00280327
-0.00335789
-0.00328278
-0.00366638
-0.0035111
-0.00405735
-0.00365962
-0.00355263
-0.0029441
-0.0021361
-0.0015337
-0.000773421
0.000164681
9.52648e-05
-0.000838405
-0.0010374
-0.000912163
-0.00161926
-0.00198583
-0.00240777
-0.00280815
-0.00336086
-0.00329412
-0.00366525
-0.00354428
-0.0040616
-0.00372996
-0.00359278
-0.003077
-0.00231848
-0.00180145
-0.00115181
0.000179631
9.0761e-05
-0.000842965
-0.00104462
-0.000909829
-0.00162242
-0.00198683
-0.00240919
-0.00281467
-0.00336227
-0.00330769
-0.00366307
-0.00358004
-0.00406921
-0.00380382
-0.00364577
-0.00321532
-0.0025185
-0.00207405
-0.00152768
0.000194979
8.64739e-05
-0.000847333
-0.00105185
-0.000907932
-0.00162479
-0.00198899
-0.00240943
-0.00282287
-0.00336226
-0.00332313
-0.00366062
-0.00361757
-0.00408156
-0.00388083
-0.0037126
-0.00336061
-0.0027347
-0.00235248
-0.00189963
0.000210635
8.25864e-05
-0.000851544
-0.00105895
-0.000906641
-0.0016262
-0.00199253
-0.00240839
-0.00283258
-0.00336125
-0.00333981
-0.00365878
-0.00365623
-0.00409956
-0.00396132
-0.00379424
-0.00351509
-0.00296629
-0.00263728
-0.00226658
0.000226486
7.93379e-05
-0.000855643
-0.00106579
-0.000906149
-0.00162647
-0.00199759
-0.00240616
-0.00284344
-0.0033598
-0.00335692
-0.00365825
-0.00369569
-0.00412291
-0.00404604
-0.00389137
-0.0036812
-0.00321336
-0.00292914
-0.00262797
0.00024236
7.70357e-05
-0.000859681
-0.0010722
-0.000906644
-0.0016255
-0.00200415
-0.00240299
-0.00285494
-0.00335848
-0.00337386
-0.0036593
-0.0037359
-0.004152
-0.00413541
-0.00400394
-0.00386114
-0.00347701
-0.00323004
-0.00298473
0.000258055
7.60426e-05
-0.000863702
-0.00107809
-0.000908215
-0.00162334
-0.00201202
-0.00239935
-0.00286636
-0.00335803
-0.00339004
-0.0036623
-0.00377647
-0.00418718
-0.00422921
-0.00413057
-0.00405627
-0.00375967
-0.00354664
-0.00334088
0.000273354
7.67849e-05
-0.000867725
-0.0010834
-0.000910891
-0.00162024
-0.00202078
-0.00239593
-0.00287692
-0.00335909
-0.0034049
-0.00366734
-0.00381727
-0.00422832
-0.00432705
-0.00426658
-0.00425991
-0.00406214
-0.00389768
-0.00370627
0.000287952
7.97444e-05
-0.000871704
-0.00108815
-0.000914615
-0.00161653
-0.0020299
-0.00239338
-0.00288595
-0.00336182
-0.00341892
-0.00367323
-0.0038591
-0.00427429
-0.00442867
-0.00441045
-0.00446981
-0.00437221
-0.00425946
-0.00411781
0.000301556
8.54068e-05
-0.000875527
-0.00109251
-0.000919103
-0.00161286
-0.00203858
-0.00239249
-0.00289282
-0.00336573
-0.00343322
-0.00367966
-0.00390264
-0.00432558
-0.00453609
-0.00457348
-0.00469536
-0.00469248
-0.00463748
-0.00453312
0.000313835
9.42362e-05
-0.000878907
-0.00109674
-0.000923871
-0.00161007
-0.00204632
-0.00239375
-0.00289782
-0.00336977
-0.00344898
-0.00368708
-0.00394977
-0.00439206
-0.00465687
-0.00474944
-0.00493098
-0.00502112
-0.00502833
-0.00494793
0.000324313
0.000106621
-0.00088127
-0.00110131
-0.000928193
-0.00160898
-0.00205291
-0.00239722
-0.0029024
-0.00337353
-0.00346846
-0.00370213
-0.00400394
-0.00447177
-0.00478757
-0.00493306
-0.00517073
-0.00535316
-0.00542653
-0.00536288
0.000332625
0.000122931
-0.000881985
-0.00110685
-0.000931375
-0.00160999
-0.00205842
-0.00240116
-0.00290787
-0.00337824
-0.00349428
-0.00372792
-0.00406183
-0.00455786
-0.00492609
-0.00512438
-0.00541349
-0.00568497
-0.00582877
-0.00577918
0.00033853
0.000143501
-0.000885155
-0.00111426
-0.000932887
-0.00161321
-0.00206426
-0.00240507
-0.00291725
-0.00338766
-0.00352563
-0.00376078
-0.00412138
-0.00464648
-0.0050712
-0.00532608
-0.00566193
-0.00601446
-0.00623079
-0.00619684
0.000341778
0.000168394
-0.000880062
-0.00112428
-0.000932491
-0.00161846
-0.00207207
-0.00240922
-0.0029333
-0.00340322
-0.00355862
-0.00379904
-0.00418326
-0.00473687
-0.00522134
-0.00553904
-0.00591888
-0.00634107
-0.00662702
-0.00661286
0.000342236
0.000197075
-0.000868756
-0.00113701
-0.000930831
-0.0016251
-0.00208464
-0.0024162
-0.00295943
-0.00342184
-0.00359033
-0.00384158
-0.00424965
-0.00482985
-0.00537432
-0.00576146
-0.00618617
-0.00666557
-0.00701354
-0.00702309
0.000339965
0.000228576
-0.000850062
-0.00115192
-0.000929024
-0.0016332
-0.00210405
-0.00242927
-0.00298742
-0.00344379
-0.00361916
-0.00388682
-0.00432244
-0.00492706
-0.00552809
-0.00599009
-0.0064641
-0.00698941
-0.00738903
-0.00742351
0.000335267
0.000261696
-0.000823117
-0.00116799
-0.000928173
-0.00164363
-0.00213618
-0.00244581
-0.00301649
-0.00346952
-0.00364555
-0.00393324
-0.00440287
-0.0050306
-0.00568139
-0.00622098
-0.00675079
-0.00731482
-0.00775461
-0.00781129
0.000328572
0.000295242
-0.00078695
-0.00118437
-0.000929969
-0.00165676
-0.00217866
-0.002465
-0.00304464
-0.00350086
-0.00367195
-0.00397933
-0.00449069
-0.00514263
-0.00583413
-0.00644973
-0.00704251
-0.00764386
-0.00811332
-0.00818572
0.000320336
0.000328128
-0.000741669
-0.00120039
-0.00093624
-0.00167205
-0.00222895
-0.00248734
-0.00307076
-0.00353869
-0.00370111
-0.00402319
-0.00458342
-0.00526503
-0.00598818
-0.00667278
-0.00733461
-0.00797704
-0.00846862
-0.00854783
0.000311264
0.000359345
-0.000688507
-0.00121539
-0.000948056
-0.00168812
-0.00228687
-0.00251427
-0.00309346
-0.00358235
-0.00373593
-0.00406397
-0.00467731
-0.00539858
-0.00614742
-0.00688889
-0.00762182
-0.00831184
-0.00882235
-0.00889946
0.000302314
0.0003882
-0.000629906
-0.00122903
-0.00096557
-0.00170407
-0.00235189
-0.00254751
-0.0031117
-0.00363023
-0.00377975
-0.00410288
-0.00476816
-0.0055414
-0.00631586
-0.00710011
-0.0078995
-0.008643
-0.00917399
-0.00924281
0.00029442
0.000414003
-0.000565756
-0.00124116
-0.000989379
-0.00171926
-0.00242079
-0.00258868
-0.00312514
-0.00367979
-0.00383515
-0.00414274
-0.0048524
-0.00568939
-0.0064956
-0.0073108
-0.00816529
-0.00896445
-0.00952089
-0.00957967
0.000288263
0.000436165
-0.000504196
-0.00125223
-0.00102063
-0.00173314
-0.00249154
-0.00263934
-0.00313467
-0.00372754
-0.0039028
-0.00418738
-0.00492832
-0.0058372
-0.00668589
-0.00752442
-0.00841927
-0.00927099
-0.00985889
-0.00991062
0.000284319
0.000454938
-0.00044321
-0.00126403
-0.00106111
-0.00175106
-0.00256092
-0.0027004
-0.00314262
-0.00377003
-0.00398125
-0.00424133
-0.00499675
-0.00597921
-0.0068833
-0.00774317
-0.00866345
-0.00955949
-0.0101833
-0.0102345
0.000283101
0.000470973
-0.000383244
-0.00127903
-0.00111366
-0.00175894
-0.00262441
-0.00277156
-0.00315204
-0.00380431
-0.00406709
-0.0043086
-0.00506082
-0.00611073
-0.00708245
-0.00796773
-0.00890116
-0.00982941
-0.0104897
-0.0105481
0.000285101
0.000485095
-0.00032583
-0.00129953
-0.00118037
-0.00176409
-0.00267691
-0.00285155
-0.00316629
-0.00382864
-0.00415585
-0.0043909
-0.00512474
-0.00622885
-0.007277
-0.00819693
-0.00913612
-0.0100826
-0.0107749
-0.010847
0.000290675
0.000497468
-0.000272526
-0.00132635
-0.00126203
-0.00176877
-0.00271615
-0.00293813
-0.00318911
-0.00384321
-0.00424182
-0.004487
-0.00519289
-0.00633303
-0.00746073
-0.0084272
-0.00937075
-0.0103218
-0.0110372
-0.011126
0.00029979
0.000506105
-0.000225496
-0.0013537
-0.00135693
-0.00177819
-0.00274149
-0.00302793
-0.00322412
-0.00385041
-0.0043195
-0.00459366
-0.00526938
-0.00642544
-0.00762848
-0.00865286
-0.00960531
-0.0105505
-0.011277
-0.0113814
0.000310045
0.000507652
-0.00018341
-0.00137571
-0.00146297
-0.00179862
-0.00275376
-0.00311658
-0.00327391
-0.00385413
-0.00438442
-0.00470568
-0.00535639
-0.00650976
-0.00777646
-0.00886672
-0.00983734
-0.0107718
-0.0114971
-0.0116121
0.000320295
0.000500345
-0.000145865
-0.00139165
-0.00157792
-0.00183442
-0.00275532
-0.00319911
-0.00333867
-0.00385947
-0.00443379
-0.00481613
-0.00545358
-0.00659018
-0.00790358
-0.00906165
-0.0100613
-0.0109862
-0.0117007
-0.0118189
0.00033227
0.000488577
-0.000122142
-0.00140061
-0.00169676
-0.0018874
-0.00274983
-0.00327074
-0.00341578
-0.00387163
-0.00446825
-0.004918
-0.00555785
-0.00667038
-0.0080116
-0.00923271
-0.0102704
-0.0111914
-0.01189
-0.0120037
0.000343794
0.000467696
-0.000108347
-0.00140264
-0.00181691
-0.00196004
-0.00274286
-0.00332811
-0.00350035
-0.00389401
-0.00449055
-0.0050049
-0.00566267
-0.00675104
-0.00810314
-0.00937746
-0.0104582
-0.011383
-0.0120649
-0.0121682
0.000350962
0.000438734
-0.00010356
-0.00139821
-0.00193579
-0.00205313
-0.00273966
-0.00336914
-0.00358644
-0.00392827
-0.00450507
-0.00507322
-0.00576072
-0.00683037
-0.00818099
-0.00949654
-0.0106207
-0.011556
-0.0122233
-0.0123125
0.000353087
0.000400853
-0.000109621
-0.00138819
-0.00204939
-0.00216485
-0.00274536
-0.00339377
-0.00366808
-0.00397432
-0.00451667
-0.00512132
-0.00584439
-0.00690376
-0.0082461
-0.00959124
-0.0107552
-0.0117057
-0.0123616
-0.0124352
0.000350956
0.000357319
-0.000132459
-0.0013803
-0.00215379
-0.00229249
-0.00276537
-0.00340411
-0.00373828
-0.00402874
-0.0045288
-0.00514875
-0.00590579
-0.00696378
-0.00829642
-0.00966116
-0.0108596
-0.011828
-0.012476
-0.0125341
0.000343964
0.000307348
-0.000174607
-0.00137772
-0.00224614
-0.00243107
-0.00280349
-0.00340463
-0.0037914
-0.00408556
-0.00454386
-0.00515859
-0.00594005
-0.0070026
-0.00832709
-0.00970371
-0.0109313
-0.0119181
-0.0125626
-0.0126067
0.000328803
0.000247035
-0.000234159
-0.00138305
-0.00232635
-0.00257524
-0.00286233
-0.00340168
-0.00382495
-0.00413721
-0.00456103
-0.00515473
-0.00594533
-0.00701238
-0.00833083
-0.00971506
-0.0109669
-0.0119717
-0.0126174
-0.0126502
0.000302857
0.000180449
-0.000310244
-0.00140051
-0.00239643
-0.0027203
-0.00294196
-0.00340163
-0.00383894
-0.00417545
-0.00457563
-0.00513913
-0.00592198
-0.00698686
-0.00829951
-0.00968897
-0.0109611
-0.0119845
-0.0126346
-0.0126607
0.000262927
0.00010695
-0.000401829
-0.00143357
-0.00245973
-0.00286216
-0.00303986
-0.00340979
-0.00383592
-0.0041939
-0.00458116
-0.00511145
-0.00587102
-0.00692154
-0.00822463
-0.00961691
-0.0109066
-0.0119502
-0.0126087
-0.0126333
0.000206901
1.81288e-05
-0.000506721
-0.00148491
-0.00252043
-0.00299793
-0.00315227
-0.00342976
-0.00381973
-0.00418914
-0.00457033
-0.00506839
-0.00579201
-0.00681322
-0.00809785
-0.00948961
-0.0107958
-0.0118612
-0.0125326
-0.0125601
0.000134013
-7.73262e-05
-0.000630015
-0.0015584
-0.00258285
-0.00312555
-0.00327496
-0.00346396
-0.00379535
-0.00416005
-0.00453607
-0.00500351
-0.00568166
-0.00665821
-0.0079116
-0.00929596
-0.0106172
-0.0117066
-0.0123969
-0.0124351
4.06585e-05
-0.000189276
-0.000767327
-0.001655
-0.00265194
-0.00324497
-0.00340417
-0.00351377
-0.00376802
-0.00410674
-0.00447154
-0.00490838
-0.0055338
-0.00645104
-0.00765789
-0.00902322
-0.0103556
-0.0114715
-0.0121883
-0.012248
-7.7449e-05
-0.000318094
-0.000918788
-0.00177539
-0.00273337
-0.00335874
-0.00353676
-0.00357907
-0.00374262
-0.00403107
-0.00437181
-0.00477414
-0.0053403
-0.00618416
-0.00732581
-0.0086556
-0.00998878
-0.0111317
-0.0118845
-0.0119726
-0.000222194
-0.000467675
-0.00108456
-0.00192039
-0.0028323
-0.00347106
-0.00367037
-0.00366008
-0.00372556
-0.00393854
-0.0042354
-0.00459256
-0.00509027
-0.00584542
-0.00689979
-0.00817019
-0.0094858
-0.0106532
-0.0114452
-0.0115797
-0.000394059
-0.000637074
-0.00127019
-0.00208991
-0.00295248
-0.00358669
-0.00380396
-0.00375672
-0.00372641
-0.00384085
-0.00406601
-0.00435815
-0.00477104
-0.00541764
-0.00635619
-0.00753754
-0.00881604
-0.00999043
-0.0108306
-0.0110369
-0.000595886
-0.000831308
-0.00147623
-0.0022819
-0.00309544
-0.00371017
-0.0039377
-0.00386689
-0.00375443
-0.0037582
-0.00387763
-0.00407121
-0.00437015
-0.0048761
-0.00566263
-0.00671319
-0.00791583
-0.00908776
-0.00998865
-0.0103001
-0.000848008
-0.00105554
-0.00169349
-0.00248231
-0.00326122
-0.00384607
-0.00407308
-0.00398684
-0.0038096
-0.00371252
-0.00369991
-0.00374535
-0.00387528
-0.00418147
-0.00476317
-0.00562657
-0.00670486
-0.00785032
-0.00882804
-0.00929956
-0.00115526
-0.00137322
-0.00191303
-0.00268933
-0.003451
-0.00399478
-0.00420868
-0.00411309
-0.00388845
-0.00370981
-0.00358932
-0.00344489
-0.00331438
-0.00330561
-0.00354256
-0.00411172
-0.00498701
-0.00605747
-0.00714536
-0.00789218
-0.00146151
-0.00165474
-0.0022346
-0.0029801
-0.00367137
-0.00415437
-0.00434203
-0.00424513
-0.0039888
-0.00374229
-0.00357364
-0.00333238
-0.00289137
-0.00231727
-0.00186345
-0.00177414
-0.00215041
-0.00292483
-0.00392107
-0.00489873
-0.00180932
-0.0020004
-0.00259882
-0.0033152
-0.0039185
-0.00431997
-0.0044709
-0.00438672
-0.00412124
-0.0037831
-0.00351959
-0.0034446
-0.00314522
-0.00214145
-0.000887121
1.47378e-05
0.000419761
0.000584836
0.000768022
0.000957072
-0.00225798
-0.00241305
-0.00298055
-0.00364679
-0.00416518
-0.00447976
-0.0045905
-0.00450388
-0.00429661
-0.00387889
-0.00291277
-0.00176732
-0.000736421
0.000137117
0.000876917
0.00157689
0.00231103
0.00304276
0.00363368
0.00377517
-0.00280194
-0.00289593
-0.0033835
-0.00396609
-0.004388
-0.00460182
-0.00467551
-0.00444627
-0.00359095
-0.00252382
-0.00157382
-0.000811271
-0.000160474
0.000521767
0.00137714
0.00238077
0.00343338
0.00439207
0.00504853
0.00508519
-0.00345716
-0.00350217
-0.00380291
-0.00418971
-0.00453872
-0.00455886
-0.00408175
-0.00339992
-0.00266889
-0.00197869
-0.00135231
-0.000707502
5.53542e-05
0.00101482
0.00212717
0.00332587
0.00450986
0.00553617
0.00618524
0.00612625
-0.00423768
-0.00431517
-0.00426485
-0.00415354
-0.00400276
-0.003767
-0.00342014
-0.00299304
-0.00250099
-0.00190731
-0.00119996
-0.000370665
0.000597606
0.00169111
0.00289609
0.00415986
0.0053826
0.00640825
0.00701297
0.00687507
-0.0049735
-0.00495764
-0.00452674
-0.00403651
-0.00364202
-0.00334432
-0.00307536
-0.00274394
-0.00228414
-0.00165389
-0.000854713
8.35694e-05
0.00113679
0.00229352
0.00353861
0.00481742
0.00603117
0.00702852
0.00758767
0.00738694
-0.00555243
-0.00540047
-0.0048057
-0.00408574
-0.00349145
-0.00307431
-0.00275188
-0.00240914
-0.00193948
-0.00129485
-0.000475722
0.000494035
0.00158694
0.00277872
0.00404098
0.00531964
0.00651935
0.00749105
0.00801289
0.00776323
-0.00601997
-0.00578578
-0.00508336
-0.00419963
-0.00342114
-0.00285358
-0.0024398
-0.00205359
-0.00157961
-0.000947717
-0.000136194
0.000839205
0.00194969
0.00316382
0.00444104
0.00572104
0.00690859
0.00785689
0.00834614
0.00805645
-0.00641823
-0.00612489
-0.00531342
-0.00430304
-0.00337737
-0.00267667
-0.00217165
-0.00174116
-0.00125968
-0.000637923
0.000161457
0.0011351
0.00225538
0.003483
0.00476931
0.00604857
0.0072243
0.00815136
0.00861254
0.0082904
-0.00673774
-0.00639188
-0.00550766
-0.00439678
-0.00335685
-0.00254929
-0.00196459
-0.00148868
-0.000990355
-0.000371797
0.000416653
0.00138204
0.00250159
0.00373516
0.00502593
0.00630323
0.00746882
0.00837869
0.00881798
0.0084716
-0.00697622
-0.00659925
-0.00565997
-0.00448002
-0.0033629
-0.00247857
-0.00182862
-0.0013062
-0.000779851
-0.000146664
0.000646454
0.00161114
0.00272744
0.00395507
0.00524125
0.00651225
0.00766758
0.00856346
0.00898635
0.00862239
-0.00712404
-0.00673664
-0.00577355
-0.0045604
-0.00340414
-0.00247863
-0.00178864
-0.00123096
-0.000677501
-2.47602e-05
0.000785982
0.0017676
0.00289808
0.00413456
0.00541957
0.00668262
0.00782707
0.00871245
0.00912721
0.00875751
0.0100884
0.00480738
-0.00283946
-0.0080838
-0.00923286
-0.00808192
-0.00663495
-0.00560916
-0.00503633
-0.00477779
-0.00470407
-0.0047352
-0.00483069
-0.00496686
-0.00512449
-0.00528906
-0.00545234
-0.00561096
-0.00576398
-0.00591116
-0.00605147
-0.00618376
-0.00630835
-0.0064276
-0.00654431
-0.00666049
-0.00677701
-0.00689384
-0.00701052
-0.00712709
-0.00724439
-0.00736337
-0.00748389
-0.00760468
-0.00772442
-0.0078428
-0.00796017
-0.00807646
-0.00819088
-0.00830262
-0.00841145
-0.00851767
-0.00862163
-0.00872354
-0.00882362
-0.00892184
-0.00901817
-0.00911277
-0.00920625
-0.00929914
-0.00939165
-0.0094835
-0.00957451
-0.00966479
-0.00975476
-0.00984465
-0.00993446
-0.010024
-0.0101132
-0.0102022
-0.0102912
-0.0103802
-0.0104689
-0.0105574
-0.0106459
-0.0107344
-0.0108228
-0.0109112
-0.0109992
-0.0110872
-0.0111751
-0.0112632
-0.0113513
-0.0114394
-0.0115273
-0.0116152
-0.0117032
-0.0117913
-0.0118792
-0.0119671
-0.0120551
-0.0121433
-0.0122316
-0.0123199
-0.0124084
-0.0124971
-0.0125864
-0.0126759
-0.0127657
-0.0128557
-0.0129463
-0.0130374
-0.0131292
-0.0132212
-0.0133137
-0.0134067
-0.0135003
-0.0135944
-0.0136889
-0.0137839
-0.0138792
-0.0139751
-0.0140712
-0.0141679
-0.0142649
-0.0143624
-0.0144602
-0.0145584
-0.014657
-0.014756
-0.0148553
-0.014955
-0.0150551
-0.0151554
-0.0152563
-0.0153573
-0.015459
-0.015561
-0.0156639
-0.0157668
-0.0158704
-0.0159743
-0.016079
-0.016184
-0.0162895
-0.0163955
-0.0165018
-0.0166089
-0.0167163
-0.0168245
-0.0169329
-0.0170422
-0.0171516
-0.0172619
-0.0173725
-0.0174836
-0.0175953
-0.0177074
-0.0178205
-0.0179336
-0.0180481
-0.0181625
-0.0182782
-0.0183936
-0.0185104
-0.0186275
-0.0187451
-0.0188632
-0.0189817
-0.0191018
-0.0192216
-0.0193428
-0.0194636
-0.0195862
-0.0197086
-0.0198319
-0.0199558
-0.02008
-0.0202061
-0.0203315
-0.0204592
-0.0205857
-0.0207145
-0.020843
-0.0209725
-0.0211027
-0.0212328
-0.0213654
-0.0214966
-0.0216308
-0.0217638
-0.0218991
-0.0220345
-0.02217
-0.0223079
-0.0224442
-0.0225847
-0.0227225
-0.0228637
-0.023004
-0.023145
-0.0232884
-0.0234289
-0.023575
-0.0237168
-0.0238634
-0.0240079
-0.0241534
-0.0243016
-0.024446
-0.0245958
-0.0247409
-0.0248893
-0.0250374
-0.02518
-0.0253305
-0.0254658
-0.0256106
-0.0257291
-0.025841
0.00924937
0.00462033
-0.00276069
-0.00795266
-0.00915465
-0.00804433
-0.00661117
-0.00559218
-0.00502395
-0.0047683
-0.00469633
-0.00472858
-0.00482488
-0.00496168
-0.00511983
-0.00528484
-0.00544851
-0.00560746
-0.00576079
-0.00590824
-0.0060488
-0.00618131
-0.00630609
-0.00642552
-0.00654237
-0.00665868
-0.00677532
-0.00689226
-0.00700903
-0.00712569
-0.00724306
-0.0073621
-0.00748269
-0.00760354
-0.00772333
-0.00784176
-0.00795917
-0.0080755
-0.00818997
-0.00830174
-0.00841062
-0.00851687
-0.00862086
-0.0087228
-0.00882291
-0.00892116
-0.00901751
-0.00911214
-0.00920565
-0.00929855
-0.00939108
-0.00948296
-0.00957399
-0.00966429
-0.00975427
-0.00984418
-0.009934
-0.0100235
-0.0101127
-0.0102018
-0.0102908
-0.0103798
-0.0104685
-0.0105571
-0.0106455
-0.010734
-0.0108225
-0.0109108
-0.0109989
-0.0110869
-0.0111748
-0.0112629
-0.011351
-0.0114391
-0.011527
-0.011615
-0.011703
-0.011791
-0.011879
-0.0119669
-0.0120549
-0.0121431
-0.0122314
-0.0123197
-0.0124082
-0.0124969
-0.0125862
-0.0126757
-0.0127656
-0.0128555
-0.0129461
-0.0130372
-0.013129
-0.0132211
-0.0133136
-0.0134066
-0.0135002
-0.0135943
-0.0136888
-0.0137838
-0.0138791
-0.013975
-0.014071
-0.0141678
-0.0142647
-0.0143623
-0.01446
-0.0145583
-0.0146568
-0.0147559
-0.0148552
-0.0149549
-0.0150549
-0.0151553
-0.0152562
-0.0153572
-0.0154589
-0.0155609
-0.0156638
-0.0157667
-0.0158703
-0.0159742
-0.0160789
-0.0161839
-0.0162895
-0.0163954
-0.0165018
-0.0166089
-0.0167162
-0.0168245
-0.0169328
-0.0170421
-0.0171516
-0.0172619
-0.0173724
-0.0174835
-0.0175952
-0.0177073
-0.0178204
-0.0179335
-0.018048
-0.0181624
-0.0182781
-0.0183935
-0.0185104
-0.0186274
-0.018745
-0.0188632
-0.0189817
-0.0191018
-0.0192215
-0.0193428
-0.0194636
-0.0195862
-0.0197086
-0.0198319
-0.0199558
-0.02008
-0.020206
-0.0203315
-0.0204591
-0.0205856
-0.0207145
-0.020843
-0.0209725
-0.0211026
-0.0212327
-0.0213653
-0.0214966
-0.0216307
-0.0217637
-0.0218991
-0.0220345
-0.02217
-0.0223079
-0.0224442
-0.0225847
-0.0227225
-0.0228636
-0.023004
-0.023145
-0.0232884
-0.0234289
-0.0235749
-0.0237168
-0.0238633
-0.0240079
-0.0241534
-0.0243015
-0.0244459
-0.0245958
-0.0247409
-0.0248893
-0.0250374
-0.02518
-0.0253305
-0.0254658
-0.0256105
-0.025729
-0.025841
0.00838726
0.00444132
-0.00258079
-0.00770106
-0.0090116
-0.00798713
-0.00658035
-0.00556869
-0.00500558
-0.0047543
-0.00468556
-0.00472004
-0.00481786
-0.00495571
-0.00511461
-0.0052802
-0.00544433
-0.00560368
-0.00575734
-0.00590509
-0.00604592
-0.00617867
-0.00630368
-0.0064233
-0.00654034
-0.0066568
-0.00677357
-0.00689064
-0.00700752
-0.00712426
-0.00724172
-0.00736084
-0.00748149
-0.0076024
-0.00772225
-0.00784073
-0.00795819
-0.00807457
-0.00818908
-0.00830089
-0.0084098
-0.00851609
-0.00862011
-0.00872208
-0.00882222
-0.00892049
-0.00901687
-0.00911152
-0.00920505
-0.00929798
-0.00939053
-0.00948243
-0.00957348
-0.00966379
-0.0097538
-0.00984372
-0.00993356
-0.0100231
-0.0101123
-0.0102014
-0.0102905
-0.0103794
-0.0104681
-0.0105567
-0.0106452
-0.0107337
-0.0108222
-0.0109105
-0.0109986
-0.0110866
-0.0111745
-0.0112626
-0.0113508
-0.0114389
-0.0115268
-0.0116147
-0.0117027
-0.0117908
-0.0118787
-0.0119666
-0.0120547
-0.0121428
-0.0122312
-0.0123195
-0.012408
-0.0124967
-0.012586
-0.0126755
-0.0127654
-0.0128553
-0.0129459
-0.0130371
-0.0131288
-0.0132209
-0.0133134
-0.0134064
-0.0135
-0.0135942
-0.0136887
-0.0137837
-0.013879
-0.0139748
-0.0140709
-0.0141676
-0.0142646
-0.0143622
-0.0144599
-0.0145582
-0.0146567
-0.0147558
-0.0148551
-0.0149548
-0.0150548
-0.0151552
-0.0152561
-0.0153571
-0.0154588
-0.0155608
-0.0156637
-0.0157666
-0.0158703
-0.0159741
-0.0160788
-0.0161839
-0.0162894
-0.0163953
-0.0165017
-0.0166088
-0.0167161
-0.0168244
-0.0169327
-0.0170421
-0.0171515
-0.0172618
-0.0173723
-0.0174835
-0.0175952
-0.0177073
-0.0178204
-0.0179335
-0.018048
-0.0181624
-0.018278
-0.0183935
-0.0185103
-0.0186274
-0.018745
-0.0188631
-0.0189816
-0.0191017
-0.0192215
-0.0193427
-0.0194635
-0.0195861
-0.0197085
-0.0198318
-0.0199557
-0.0200799
-0.020206
-0.0203315
-0.0204591
-0.0205856
-0.0207144
-0.0208429
-0.0209725
-0.0211026
-0.0212327
-0.0213653
-0.0214966
-0.0216307
-0.0217637
-0.0218991
-0.0220344
-0.02217
-0.0223079
-0.0224442
-0.0225846
-0.0227224
-0.0228636
-0.0230039
-0.0231449
-0.0232884
-0.0234288
-0.0235749
-0.0237167
-0.0238633
-0.0240079
-0.0241534
-0.0243015
-0.0244459
-0.0245958
-0.0247409
-0.0248893
-0.0250374
-0.0251799
-0.0253305
-0.0254658
-0.0256105
-0.025729
-0.025841
0.00757785
0.00428429
-0.00232826
-0.0073657
-0.00881202
-0.00790601
-0.00653685
-0.00553378
-0.00497734
-0.00473298
-0.00466979
-0.00470817
-0.00480858
-0.00494812
-0.00510813
-0.00527449
-0.00543921
-0.00559907
-0.00575314
-0.00590123
-0.00604236
-0.0061754
-0.00630069
-0.0064206
-0.00653789
-0.00665458
-0.00677154
-0.00688876
-0.00700578
-0.00712267
-0.00724024
-0.00735946
-0.00748019
-0.00760118
-0.00772109
-0.00783964
-0.00795715
-0.00807358
-0.00818814
-0.00829999
-0.00840894
-0.00851527
-0.00861932
-0.00872133
-0.0088215
-0.0089198
-0.00901621
-0.00911089
-0.00920444
-0.00929739
-0.00938996
-0.00948188
-0.00957295
-0.00966328
-0.00975331
-0.00984324
-0.00993311
-0.0100227
-0.0101119
-0.010201
-0.0102901
-0.010379
-0.0104678
-0.0105564
-0.0106448
-0.0107334
-0.0108218
-0.0109102
-0.0109983
-0.0110863
-0.0111742
-0.0112624
-0.0113505
-0.0114386
-0.0115265
-0.0116145
-0.0117025
-0.0117905
-0.0118785
-0.0119664
-0.0120544
-0.0121426
-0.012231
-0.0123193
-0.0124078
-0.0124965
-0.0125858
-0.0126754
-0.0127652
-0.0128552
-0.0129458
-0.0130369
-0.0131287
-0.0132207
-0.0133133
-0.0134063
-0.0134999
-0.013594
-0.0136885
-0.0137835
-0.0138788
-0.0139747
-0.0140708
-0.0141675
-0.0142645
-0.0143621
-0.0144598
-0.0145581
-0.0146566
-0.0147557
-0.014855
-0.0149547
-0.0150547
-0.0151551
-0.015256
-0.015357
-0.0154588
-0.0155608
-0.0156636
-0.0157666
-0.0158702
-0.015974
-0.0160787
-0.0161838
-0.0162893
-0.0163952
-0.0165016
-0.0166087
-0.0167161
-0.0168243
-0.0169327
-0.017042
-0.0171514
-0.0172617
-0.0173723
-0.0174834
-0.0175951
-0.0177072
-0.0178203
-0.0179334
-0.0180479
-0.0181623
-0.018278
-0.0183934
-0.0185102
-0.0186273
-0.0187449
-0.0188631
-0.0189816
-0.0191017
-0.0192214
-0.0193427
-0.0194635
-0.0195861
-0.0197085
-0.0198318
-0.0199557
-0.0200799
-0.0202059
-0.0203314
-0.0204591
-0.0205856
-0.0207144
-0.0208429
-0.0209724
-0.0211026
-0.0212327
-0.0213653
-0.0214965
-0.0216307
-0.0217636
-0.021899
-0.0220344
-0.0221699
-0.0223078
-0.0224441
-0.0225846
-0.0227224
-0.0228636
-0.0230039
-0.0231449
-0.0232884
-0.0234288
-0.0235749
-0.0237167
-0.0238633
-0.0240079
-0.0241534
-0.0243015
-0.0244459
-0.0245958
-0.0247408
-0.0248892
-0.0250374
-0.0251799
-0.0253305
-0.0254658
-0.0256105
-0.025729
-0.025841
0.00680573
0.00410965
-0.00205813
-0.00700048
-0.0085882
-0.00781434
-0.00648731
-0.00549076
-0.00494007
-0.00470385
-0.00464799
-0.00469178
-0.00479589
-0.00493787
-0.00509946
-0.0052669
-0.00543244
-0.00559296
-0.00574758
-0.00589608
-0.00603754
-0.00617092
-0.00629658
-0.00641689
-0.00653457
-0.00665159
-0.00676881
-0.00688627
-0.00700351
-0.0071206
-0.00723836
-0.00735773
-0.00747858
-0.00759967
-0.00771968
-0.00783832
-0.00795591
-0.0080724
-0.00818701
-0.00829891
-0.00840792
-0.0085143
-0.00861841
-0.00872045
-0.00882066
-0.00891899
-0.00901543
-0.00911015
-0.00920374
-0.00929671
-0.00938931
-0.00948125
-0.00957234
-0.0096627
-0.00975275
-0.00984271
-0.00993259
-0.0100222
-0.0101114
-0.0102005
-0.0102896
-0.0103786
-0.0104674
-0.010556
-0.0106445
-0.010733
-0.0108215
-0.0109099
-0.010998
-0.011086
-0.0111739
-0.011262
-0.0113502
-0.0114383
-0.0115262
-0.0116142
-0.0117022
-0.0117903
-0.0118783
-0.0119662
-0.0120542
-0.0121424
-0.0122307
-0.0123191
-0.0124076
-0.0124963
-0.0125856
-0.0126752
-0.012765
-0.012855
-0.0129456
-0.0130367
-0.0131285
-0.0132206
-0.0133131
-0.0134061
-0.0134997
-0.0135939
-0.0136884
-0.0137834
-0.0138787
-0.0139745
-0.0140706
-0.0141674
-0.0142644
-0.0143619
-0.0144597
-0.014558