/*--------------------------------*- C++ -*----------------------------------*\
| =========                 |                                                 |
| \\      /  F ield         | OpenFOAM: The Open Source CFD Toolbox           |
|  \\    /   O peration     | Version:  v2012                                 |
|   \\  /    A nd           | Website:  www.openfoam.com                      |
|    \\/     M anipulation  |                                                 |
\*---------------------------------------------------------------------------*/
FoamFile
{
    version     2.0;
    format      ascii;
    class       volVectorField;
    location    "3.65";
    object      U;
}
// * * * * * * * * * * * * * * * * * * * * * * * * * * * * * * * * * * * * * //

dimensions      [0 1 -1 0 0 0 0];


internalField   nonuniform List<vector> 
17600
(
(0.821931 -0.00103653 0)
(1.17993 0.0032678 0)
(0.843529 0.00174237 0)
(1.1605 -0.000613454 0)
(0.840757 0.000334763 0)
(1.13785 -0.00072525 0)
(0.849748 0.000790795 0)
(1.11964 -0.000676138 0)
(0.858217 0.00077192 0)
(1.10561 -0.00112798 0)
(0.865059 0.00184669 0)
(1.09496 -0.00206225 0)
(0.868142 0.00363031 0)
(1.08879 -0.00350465 0)
(0.864622 0.00492343 0)
(1.08561 -0.00380015 0)
(0.853267 0.00456645 0)
(1.08334 -0.0029515 0)
(0.835056 0.00412511 0)
(1.08055 -0.00242696 0)
(0.832321 -0.00114471 0)
(1.16874 0.00328134 0)
(0.857867 0.00170156 0)
(1.14669 -0.000398281 0)
(0.857099 0.000328051 0)
(1.12158 -0.000589908 0)
(0.86818 0.00076165 0)
(1.10059 -0.000551522 0)
(0.879903 0.000720538 0)
(1.08297 -0.00098452 0)
(0.89122 0.00177093 0)
(1.0666 -0.00188342 0)
(0.901136 0.00351346 0)
(1.05125 -0.00326234 0)
(0.909066 0.00484107 0)
(1.0333 -0.00363674 0)
(0.918236 0.00484673 0)
(1.00752 -0.00332327 0)
(0.933834 0.00555838 0)
(0.968136 -0.00385444 0)
(0.852932 -0.00124328 0)
(1.14518 0.00327251 0)
(0.883784 0.00170524 0)
(1.12131 -0.000199202 0)
(0.886555 0.000367176 0)
(1.09302 -0.000496434 0)
(0.899966 0.000797277 0)
(1.06925 -0.000501043 0)
(0.914678 0.000764195 0)
(1.04893 -0.000957009 0)
(0.928945 0.00183151 0)
(1.02994 -0.00187035 0)
(0.94163 0.00357156 0)
(1.01348 -0.00320225 0)
(0.951787 0.00490184 0)
(0.997675 -0.00349002 0)
(0.960622 0.0049255 0)
(0.98096 -0.00297671 0)
(0.967092 0.00558598 0)
(0.965375 -0.0021429 0)
(0.881088 -0.00128952 0)
(1.11238 0.00318905 0)
(0.915039 0.00176065 0)
(1.0897 -9.62433e-05 0)
(0.9209 0.000489955 0)
(1.06039 -0.00049142 0)
(0.934154 0.000925866 0)
(1.03731 -0.000558776 0)
(0.947947 0.000911797 0)
(1.01921 -0.00104499 0)
(0.959628 0.00199908 0)
(1.00446 -0.00196795 0)
(0.968246 0.00372064 0)
(0.994964 -0.00324351 0)
(0.973474 0.00503272 0)
(0.988163 -0.00344704 0)
(0.976233 0.0050139 0)
(0.981488 -0.00272833 0)
(0.975627 0.00551919 0)
(0.974746 -0.000730087 0)
(0.912078 -0.00127858 0)
(1.07655 0.00303861 0)
(0.94479 0.00183855 0)
(1.05892 -6.6651e-05 0)
(0.951578 0.000669763 0)
(1.03249 -0.000529338 0)
(0.961502 0.00109031 0)
(1.01415 -0.000646336 0)
(0.970972 0.00106814 0)
(1.00196 -0.00112586 0)
(0.977333 0.0021339 0)
(0.993719 -0.00201958 0)
(0.980851 0.00378279 0)
(0.990478 -0.0032221 0)
(0.982366 0.00504576 0)
(0.988485 -0.0033726 0)
(0.9826 0.00502314 0)
(0.984862 -0.00251855 0)
(0.980646 0.00547798 0)
(0.97937 0.000479025 0)
(0.940886 -0.00121771 0)
(1.04448 0.00286298 0)
(0.968211 0.00190556 0)
(1.03462 -7.5184e-05 0)
(0.97378 0.000853829 0)
(1.01417 -0.000560382 0)
(0.979052 0.00122976 0)
(1.00213 -0.000706031 0)
(0.983838 0.00117393 0)
(0.995685 -0.0011538 0)
(0.986035 0.00219628 0)
(0.99186 -0.00201175 0)
(0.98674 0.00375538 0)
(0.991393 -0.00314757 0)
(0.986999 0.00495008 0)
(0.990784 -0.00322714 0)
(0.986737 0.00491181 0)
(0.987866 -0.00221487 0)
(0.984694 0.00539235 0)
(0.982937 0.00160157 0)
(0.963937 -0.00112417 0)
(1.0208 0.00270212 0)
(0.983827 0.00193602 0)
(1.01884 -9.62626e-05 0)
(0.987295 0.00100372 0)
(1.00513 -0.000564888 0)
(0.988872 0.00132144 0)
(0.998272 -0.000731522 0)
(0.990651 0.00122854 0)
(0.995399 -0.00114742 0)
(0.990899 0.00221376 0)
(0.993537 -0.00198087 0)
(0.99066 0.00369257 0)
(0.99387 -0.00305706 0)
(0.990656 0.00481173 0)
(0.993575 -0.00302766 0)
(0.990288 0.00470365 0)
(0.990937 -0.00177296 0)
(0.988259 0.00519854 0)
(0.986483 0.00268676 0)
(0.979952 -0.00102087 0)
(1.0065 0.0025769 0)
(0.99289 0.00192438 0)
(1.01033 -0.000117298 0)
(0.994568 0.00110702 0)
(1.00218 -0.000549932 0)
(0.994368 0.00137254 0)
(0.998514 -0.000738786 0)
(0.994887 0.00125268 0)
(0.997344 -0.00112937 0)
(0.994618 0.0022119 0)
(0.996205 -0.00194247 0)
(0.994203 0.00361803 0)
(0.996712 -0.00295602 0)
(0.994127 0.00465974 0)
(0.996478 -0.0028 0)
(0.993648 0.0044579 0)
(0.993981 -0.00125234 0)
(0.991623 0.00493609 0)
(0.989884 0.00371194 0)
(0.989667 -0.00092707 0)
(0.999675 0.00248767 0)
(0.997718 0.00188348 0)
(1.00641 -0.000136263 0)
(0.998317 0.00116949 0)
(1.00204 -0.000530673 0)
(0.997883 0.0013981 0)
(1.00009 -0.000740893 0)
(0.998109 0.00126234 0)
(0.999669 -0.00110955 0)
(0.997884 0.00220024 0)
(0.998851 -0.00189807 0)
(0.997508 0.00353263 0)
(0.999395 -0.00283487 0)
(0.99736 0.00448334 0)
(0.999159 -0.00253119 0)
(0.996723 0.00417937 0)
(0.996739 -0.000685944 0)
(0.994673 0.00465123 0)
(0.992943 0.00465237 0)
(0.994847 -0.000852019 0)
(0.997355 0.00242245 0)
(1.00029 0.00183164 0)
(1.00479 -0.0001551 0)
(1.00033 0.00120329 0)
(1.0027 -0.000517618 0)
(1.00038 0.0014087 0)
(1.00169 -0.000743103 0)
(1.00065 0.0012646 0)
(1.00164 -0.00109051 0)
(1.0006 0.00218036 0)
(1.00105 -0.00184776 0)
(1.0003 0.0034345 0)
(1.00162 -0.00268959 0)
(1.00008 0.00427457 0)
(1.00136 -0.00221253 0)
(0.999263 0.0038683 0)
(0.998997 -0.000100752 0)
(0.997186 0.00437497 0)
(0.995474 0.0054759 0)
(0.99731 -0.000795839 0)
(0.997083 0.00236763 0)
(1.00177 0.00178199 0)
(1.00412 -0.000175037 0)
(1.00146 0.00121938 0)
(1.00331 -0.000514198 0)
(1.00213 0.00140953 0)
(1.00286 -0.000746323 0)
(1.0025 0.00126139 0)
(1.00306 -0.00107173 0)
(1.0026 0.00215065 0)
(1.00265 -0.00178964 0)
(1.00238 0.00331984 0)
(1.00325 -0.0025177 0)
(1.00209 0.00403438 0)
(1.00298 -0.00185177 0)
(1.00113 0.00353409 0)
(1.00065 0.000511318 0)
(0.999058 0.0041403 0)
(0.997386 0.00615151 0)
(0.998386 -0.000754235 0)
(0.997439 0.00231441 0)
(1.00267 0.00173961 0)
(1.00381 -0.000195771 0)
(1.00208 0.00122553 0)
(1.00366 -0.000519244 0)
(1.00322 0.00140296 0)
(1.00358 -0.000749749 0)
(1.00368 0.00125253 0)
(1.00396 -0.00105135 0)
(1.0039 0.00210878 0)
(1.00369 -0.00172007 0)
(1.00374 0.00318291 0)
(1.00433 -0.00231433 0)
(1.00341 0.00376016 0)
(1.00403 -0.00145127 0)
(1.00236 0.00318219 0)
(1.00173 0.00113731 0)
(1.00034 0.00398716 0)
(0.998725 0.00667537 0)
(0.998843 -0.000722426 0)
(0.997836 0.00225927 0)
(1.00323 0.00170414 0)
(1.00365 -0.000216595 0)
(1.0024 0.00122652 0)
(1.00381 -0.000529965 0)
(1.00383 0.0013901 0)
(1.00397 -0.00075194 0)
(1.00434 0.00123718 0)
(1.00447 -0.00102707 0)
(1.00464 0.00205296 0)
(1.00432 -0.00163626 0)
(1.00453 0.00302177 0)
(1.00498 -0.00208181 0)
(1.00419 0.00345751 0)
(1.00464 -0.00102333 0)
(1.00312 0.00283671 0)
(1.00238 0.00172387 0)
(1.00117 0.00393278 0)
(0.999635 0.00705721 0)
(0.999049 -0.000696876 0)
(0.998123 0.00220177 0)
(1.00357 0.00167322 0)
(1.00357 -0.000237186 0)
(1.00255 0.00122475 0)
(1.00386 -0.000543552 0)
(1.00413 0.0013715 0)
(1.00415 -0.000751435 0)
(1.00468 0.00121418 0)
(1.00474 -0.000996068 0)
(1.00503 0.00198077 0)
(1.00467 -0.00153557 0)
(1.00495 0.0028373 0)
(1.00535 -0.00182746 0)
(1.00463 0.00314106 0)
(1.00497 -0.000594583 0)
(1.00357 0.00253319 0)
(1.00276 0.00224439 0)
(1.00173 0.00397345 0)
(1.00028 0.00730898 0)
(0.99916 -0.000675457 0)
(0.998304 0.00214275 0)
(1.00375 0.00164437 0)
(1.00352 -0.000257506 0)
(1.00261 0.00122089 0)
(1.00387 -0.000557646 0)
(1.00427 0.0013473 0)
(1.00423 -0.000746606 0)
(1.00484 0.001182 0)
(1.00489 -0.000955339 0)
(1.00521 0.00189016 0)
(1.00487 -0.00141627 0)
(1.00516 0.00262961 0)
(1.00555 -0.00155355 0)
(1.00488 0.00281809 0)
(1.00514 -0.000180365 0)
(1.00387 0.00229059 0)
(1.003 0.00268386 0)
(1.00213 0.00410009 0)
(1.00077 0.00746323 0)
(0.999236 -0.000657083 0)
(0.998412 0.00208348 0)
(1.00386 0.00161553 0)
(1.00348 -0.000277493 0)
(1.00264 0.00121441 0)
(1.00385 -0.000570372 0)
(1.00433 0.0013165 0)
(1.00426 -0.000734589 0)
(1.00491 0.00113752 0)
(1.00496 -0.000901085 0)
(1.00529 0.00177939 0)
(1.00498 -0.00127861 0)
(1.00527 0.00240273 0)
(1.00566 -0.00126875 0)
(1.00504 0.00250075 0)
(1.00522 0.000211359 0)
(1.00409 0.00211619 0)
(1.00318 0.00304218 0)
(1.00246 0.00429436 0)
(1.00121 0.00755687 0)
(0.999299 -0.00064137 0)
(0.998476 0.00202541 0)
(1.00391 0.00158482 0)
(1.00345 -0.000296605 0)
(1.00265 0.0012042 0)
(1.00384 -0.000579801 0)
(1.00435 0.00127702 0)
(1.00426 -0.000712367 0)
(1.00494 0.00107878 0)
(1.005 -0.000832653 0)
(1.00533 0.00164991 0)
(1.00504 -0.00112523 0)
(1.00532 0.00216179 0)
(1.00571 -0.000981805 0)
(1.00515 0.00220081 0)
(1.00526 0.000571391 0)
(1.00428 0.00201717 0)
(1.00333 0.00333423 0)
(1.00274 0.00453542 0)
(1.00161 0.00762165 0)
(0.999359 -0.000628156 0)
(0.998513 0.00196948 0)
(1.00393 0.00155035 0)
(1.00342 -0.000314153 0)
(1.00265 0.00118902 0)
(1.00381 -0.000583901 0)
(1.00437 0.00122715 0)
(1.00425 -0.000679019 0)
(1.00495 0.00100648 0)
(1.00502 -0.000751744 0)
(1.00534 0.00150497 0)
(1.00507 -0.000962188 0)
(1.00536 0.00191716 0)
(1.00574 -0.00070651 0)
(1.00525 0.00193459 0)
(1.00528 0.000885896 0)
(1.00444 0.00199042 0)
(1.00349 0.00357175 0)
(1.00301 0.00479697 0)
(1.00199 0.00767268 0)
(0.99942 -0.000617194 0)
(0.998536 0.00191585 0)
(1.00393 0.00151147 0)
(1.00339 -0.000329415 0)
(1.00265 0.00116741 0)
(1.00379 -0.00058045 0)
(1.00437 0.00116551 0)
(1.00423 -0.000633639 0)
(1.00496 0.000919254 0)
(1.00502 -0.000657872 0)
(1.00535 0.00134577 0)
(1.00508 -0.000794747 0)
(1.00538 0.00167911 0)
(1.00575 -0.000457799 0)
(1.00533 0.00171715 0)
(1.00529 0.00115017 0)
(1.0046 0.0020216 0)
(1.00366 0.003763 0)
(1.00328 0.00505669 0)
(1.00237 0.00771652 0)
(0.999481 -0.000608819 0)
(0.998553 0.00186597 0)
(1.00392 0.00146675 0)
(1.00335 -0.000340607 0)
(1.00266 0.00113696 0)
(1.00376 -0.000567467 0)
(1.00437 0.00109072 0)
(1.0042 -0.000574743 0)
(1.00497 0.00081588 0)
(1.00502 -0.00055313 0)
(1.00535 0.00117697 0)
(1.00509 -0.000629819 0)
(1.0054 0.00145316 0)
(1.00575 -0.000239438 0)
(1.00542 0.00154628 0)
(1.00531 0.00136775 0)
(1.00476 0.00209954 0)
(1.00384 0.00392728 0)
(1.00354 0.00530952 0)
(1.00275 0.00776358 0)
(0.999542 -0.000603646 0)
(0.998568 0.00182207 0)
(1.00391 0.00141331 0)
(1.00332 -0.000345486 0)
(1.00266 0.00109507 0)
(1.00373 -0.000544216 0)
(1.00438 0.00100191 0)
(1.00417 -0.000501971 0)
(1.00497 0.00069897 0)
(1.00502 -0.000443854 0)
(1.00536 0.0010072 0)
(1.00509 -0.000477755 0)
(1.00542 0.00124801 0)
(1.00576 -5.28673e-05 0)
(1.0055 0.00141314 0)
(1.00535 0.00154811 0)
(1.00491 0.00221483 0)
(1.00404 0.00408427 0)
(1.00381 0.00555703 0)
(1.00311 0.00782176 0)
(0.9996 -0.000601452 0)
(0.998586 0.00178456 0)
(1.00389 0.0013498 0)
(1.00329 -0.000343519 0)
(1.00265 0.00104122 0)
(1.0037 -0.000510215 0)
(1.00437 0.000898837 0)
(1.00414 -0.000417107 0)
(1.00497 0.000573786 0)
(1.00501 -0.000338138 0)
(1.00536 0.000846828 0)
(1.0051 -0.000350437 0)
(1.00544 0.00107169 0)
(1.00576 9.63399e-05 0)
(1.00559 0.00130687 0)
(1.00539 0.00169922 0)
(1.00508 0.00235461 0)
(1.00426 0.00424565 0)
(1.00408 0.00580163 0)
(1.00348 0.00789862 0)
(0.999653 -0.000602334 0)
(0.99861 0.00175484 0)
(1.00386 0.00127466 0)
(1.00327 -0.000333968 0)
(1.00264 0.000974873 0)
(1.00368 -0.000464488 0)
(1.00437 0.000783157 0)
(1.00412 -0.000326035 0)
(1.00497 0.000447923 0)
(1.00501 -0.000243076 0)
(1.00535 0.000700849 0)
(1.0051 -0.000253009 0)
(1.00546 0.000916831 0)
(1.00578 0.000214403 0)
(1.00567 0.00121911 0)
(1.00546 0.00182578 0)
(1.00525 0.00249881 0)
(1.0045 0.00441181 0)
(1.00435 0.00603962 0)
(1.00383 0.00800335 0)
(0.999697 -0.000608346 0)
(0.998643 0.00173715 0)
(1.00382 0.0011838 0)
(1.00325 -0.00031291 0)
(1.00263 0.000892369 0)
(1.00365 -0.000405542 0)
(1.00436 0.000654546 0)
(1.00409 -0.000230077 0)
(1.00497 0.000323822 0)
(1.00501 -0.000160757 0)
(1.00535 0.000571371 0)
(1.00511 -0.000173511 0)
(1.00548 0.000779442 0)
(1.00579 0.000311795 0)
(1.00576 0.00114955 0)
(1.00554 0.00192368 0)
(1.00542 0.00262801 0)
(1.00475 0.00456754 0)
(1.00463 0.00626912 0)
(1.00418 0.00815719 0)
(0.999731 -0.000617334 0)
(0.998686 0.00172833 0)
(1.00377 0.00108003 0)
(1.00324 -0.000284891 0)
(1.0026 0.00080052 0)
(1.00364 -0.000344885 0)
(1.00435 0.000529013 0)
(1.00408 -0.000147264 0)
(1.00496 0.000220694 0)
(1.00502 -0.000109277 0)
(1.00534 0.000479682 0)
(1.00512 -0.000137403 0)
(1.0055 0.000686028 0)
(1.00582 0.000352182 0)
(1.00585 0.00112011 0)
(1.00564 0.00195405 0)
(1.00561 0.00272978 0)
(1.00503 0.0046069 0)
(1.00492 0.00646248 0)
(1.00453 0.00834923 0)
(0.999753 -0.000629646 0)
(0.998738 0.00173036 0)
(1.00371 0.00096043 0)
(1.00324 -0.000249509 0)
(1.00257 0.000696723 0)
(1.00363 -0.000278567 0)
(1.00432 0.000402579 0)
(1.00407 -7.4077e-05 0)
(1.00493 0.000132803 0)
(1.00503 -8.22047e-05 0)
(1.00532 0.000408626 0)
(1.00514 -0.000125089 0)
(1.00551 0.000598589 0)
(1.00585 0.000375925 0)
(1.00594 0.00107862 0)
(1.00576 0.00196008 0)
(1.0058 0.00276216 0)
(1.00534 0.00455405 0)
(1.00525 0.00648611 0)
(1.0049 0.00837453 0)
(0.999766 -0.000649125 0)
(0.998799 0.00174787 0)
(1.00363 0.000823424 0)
(1.00324 -0.000206691 0)
(1.00253 0.000585525 0)
(1.00362 -0.000215266 0)
(1.00429 0.000285528 0)
(1.00406 -2.28757e-05 0)
(1.0049 6.91672e-05 0)
(1.00505 -8.58564e-05 0)
(1.00529 0.000351027 0)
(1.00515 -0.000110663 0)
(1.00552 0.00049818 0)
(1.00589 0.000417811 0)
(1.00603 0.0010138 0)
(1.00588 0.00197597 0)
(1.00598 0.00283028 0)
(1.00564 0.00457555 0)
(1.00558 0.00651365 0)
(1.00529 0.00842874 0)
(0.999771 -0.000668642 0)
(0.998864 0.00177121 0)
(1.00355 0.000678457 0)
(1.00325 -0.000165578 0)
(1.00248 0.000476633 0)
(1.00362 -0.000166503 0)
(1.00425 0.000193632 0)
(1.00406 -2.4361e-06 0)
(1.00487 3.20873e-05 0)
(1.00507 -0.000110447 0)
(1.00526 0.000293149 0)
(1.00517 -9.91942e-05 0)
(1.00553 0.000421212 0)
(1.00593 0.000457138 0)
(1.00612 0.00105803 0)
(1.00603 0.00206949 0)
(1.00618 0.00304077 0)
(1.00597 0.00469799 0)
(1.00593 0.00665562 0)
(1.0057 0.00854681 0)
(0.999772 -0.000693908 0)
(0.998928 0.00180981 0)
(1.00346 0.00052398 0)
(1.00326 -0.000127257 0)
(1.00243 0.000371457 0)
(1.00362 -0.000137433 0)
(1.00421 0.000119229 0)
(1.00406 2.31734e-07 0)
(1.00482 6.7904e-06 0)
(1.00509 -0.000130706 0)
(1.00524 0.00023133 0)
(1.00519 -5.83019e-05 0)
(1.00554 0.0004036 0)
(1.00599 0.000578458 0)
(1.00622 0.00123066 0)
(1.0062 0.00227744 0)
(1.00639 0.00328029 0)
(1.0063 0.00485335 0)
(1.00629 0.00678057 0)
(1.0061 0.00864688 0)
(0.999775 -0.000724964 0)
(0.998987 0.00186347 0)
(1.00337 0.000365633 0)
(1.00327 -0.00010036 0)
(1.00238 0.000281279 0)
(1.00361 -0.000139958 0)
(1.00417 7.28233e-05 0)
(1.00405 -2.66078e-05 0)
(1.00478 -2.13882e-06 0)
(1.0051 -0.000146365 0)
(1.00521 0.000192235 0)
(1.0052 4.21696e-05 0)
(1.00556 0.000483813 0)
(1.00606 0.000757166 0)
(1.00634 0.00141187 0)
(1.00637 0.00247492 0)
(1.0066 0.00347229 0)
(1.00663 0.00495009 0)
(1.00667 0.00681043 0)
(1.00651 0.00864309 0)
(0.99978 -0.000754877 0)
(0.999037 0.00191683 0)
(1.00328 0.000209566 0)
(1.00327 -9.34359e-05 0)
(1.00232 0.000210911 0)
(1.0036 -0.000166338 0)
(1.00413 4.09695e-05 0)
(1.00405 -5.0496e-05 0)
(1.00474 -1.90031e-05 0)
(1.00511 -0.000117821 0)
(1.0052 0.000203876 0)
(1.00523 0.000188786 0)
(1.00559 0.00061129 0)
(1.00613 0.00090835 0)
(1.00645 0.00154092 0)
(1.00655 0.00261872 0)
(1.00681 0.00363753 0)
(1.00696 0.00502482 0)
(1.00705 0.00679597 0)
(1.00692 0.00858241 0)
(0.999791 -0.000787494 0)
(0.999075 0.00197118 0)
(1.00318 5.44275e-05 0)
(1.00327 -0.000115238 0)
(1.00227 0.000167642 0)
(1.00358 -0.000226891 0)
(1.00409 2.21205e-05 0)
(1.00404 -6.02828e-05 0)
(1.0047 -3.01399e-05 0)
(1.00512 -2.86406e-05 0)
(1.00519 0.000273014 0)
(1.00526 0.000333869 0)
(1.00562 0.000735753 0)
(1.0062 0.0010505 0)
(1.00658 0.00164315 0)
(1.00673 0.00273237 0)
(1.00702 0.00379165 0)
(1.00728 0.00510854 0)
(1.00744 0.00676391 0)
(1.00733 0.00848027 0)
(0.999808 -0.000820044 0)
(0.999101 0.00202368 0)
(1.00308 -7.797e-05 0)
(1.00327 -0.000178408 0)
(1.00222 0.000144721 0)
(1.00355 -0.000307701 0)
(1.00405 6.14894e-06 0)
(1.00402 -5.29117e-05 0)
(1.00468 -2.88683e-06 0)
(1.00513 0.000103429 0)
(1.00519 0.000355177 0)
(1.00528 0.000458703 0)
(1.00565 0.000850886 0)
(1.00627 0.00119598 0)
(1.00671 0.00174319 0)
(1.00693 0.0028204 0)
(1.00725 0.00392108 0)
(1.00759 0.00519277 0)
(1.00781 0.00672092 0)
(1.00773 0.00834016 0)
(0.999831 -0.000851575 0)
(0.999116 0.00206478 0)
(1.00298 -0.000169393 0)
(1.00326 -0.00028568 0)
(1.00217 0.000138431 0)
(1.00352 -0.000392541 0)
(1.00403 -1.58772e-05 0)
(1.004 2.50199e-06 0)
(1.00466 6.42269e-05 0)
(1.00514 0.000253652 0)
(1.00519 0.00045821 0)
(1.00531 0.000561912 0)
(1.00569 0.00095938 0)
(1.00634 0.00134265 0)
(1.00684 0.00185665 0)
(1.00714 0.00288636 0)
(1.00749 0.00401943 0)
(1.0079 0.00526338 0)
(1.00818 0.00667321 0)
(1.00813 0.00817675 0)
(0.999857 -0.000881927 0)
(0.99912 0.00208837 0)
(1.00287 -0.000220173 0)
(1.00324 -0.000420025 0)
(1.00212 0.000138588 0)
(1.00348 -0.000470328 0)
(1.00401 -1.81222e-05 0)
(1.00398 0.000123664 0)
(1.00464 0.000149057 0)
(1.00515 0.000395647 0)
(1.00519 0.000580627 0)
(1.00533 0.000652516 0)
(1.00574 0.00105762 0)
(1.00641 0.00148599 0)
(1.00697 0.00198224 0)
(1.00735 0.00293904 0)
(1.00775 0.00408418 0)
(1.00821 0.00530926 0)
(1.00854 0.00662137 0)
(1.00852 0.0080038 0)
(0.999886 -0.000905238 0)
(0.999118 0.00208522 0)
(1.00275 -0.000223231 0)
(1.00322 -0.000580362 0)
(1.00207 0.000145014 0)
(1.00344 -0.000534876 0)
(1.004 -2.32128e-06 0)
(1.00395 0.000271318 0)
(1.00463 0.000227935 0)
(1.00515 0.000500072 0)
(1.00518 0.000705639 0)
(1.00535 0.00074131 0)
(1.0058 0.00114112 0)
(1.00649 0.00162729 0)
(1.0071 0.00211867 0)
(1.00756 0.00299217 0)
(1.00801 0.00411453 0)
(1.00852 0.0053221 0)
(1.00889 0.00655996 0)
(1.00889 0.00782941 0)
(0.999916 -0.000924311 0)
(0.999114 0.002059 0)
(1.00262 -0.000193715 0)
(1.0032 -0.000741898 0)
(1.00202 0.000158931 0)
(1.00339 -0.000559086 0)
(1.00401 3.20316e-06 0)
(1.00393 0.000409651 0)
(1.00461 0.000295773 0)
(1.00516 0.000574466 0)
(1.00518 0.000835633 0)
(1.00537 0.000847458 0)
(1.00586 0.00121269 0)
(1.00657 0.00175653 0)
(1.00723 0.00226029 0)
(1.00777 0.00305016 0)
(1.00828 0.00411377 0)
(1.00883 0.00529792 0)
(1.00923 0.00648335 0)
(1.00925 0.00765771 0)
(0.999945 -0.00093934 0)
(0.999109 0.00200717 0)
(1.00248 -0.000133735 0)
(1.00317 -0.00088282 0)
(1.00198 0.000177028 0)
(1.00334 -0.000527902 0)
(1.00403 2.2289e-07 0)
(1.00392 0.000549134 0)
(1.00459 0.000379432 0)
(1.00518 0.000634882 0)
(1.00518 0.00096772 0)
(1.00538 0.000975073 0)
(1.00593 0.00127394 0)
(1.00667 0.00185605 0)
(1.00735 0.00239914 0)
(1.00797 0.00311939 0)
(1.00855 0.00409914 0)
(1.00914 0.00524347 0)
(1.00957 0.00638823 0)
(1.0096 0.00748553 0)
(0.999973 -0.000945555 0)
(0.999106 0.00192228 0)
(1.00232 -5.19562e-05 0)
(1.00314 -0.000997935 0)
(1.00195 0.000200046 0)
(1.00329 -0.000465515 0)
(1.00405 -1.19246e-05 0)
(1.00391 0.000683992 0)
(1.00457 0.000483488 0)
(1.0052 0.000678404 0)
(1.00519 0.00108964 0)
(1.00539 0.00112421 0)
(1.006 0.0013418 0)
(1.00677 0.00192624 0)
(1.00749 0.00252734 0)
(1.00816 0.00320492 0)
(1.00882 0.00408913 0)
(1.00946 0.00516647 0)
(1.00991 0.00626741 0)
(1.00994 0.00730041 0)
(0.999999 -0.000943961 0)
(0.999107 0.00180457 0)
(1.00217 3.81266e-05 0)
(1.00311 -0.00107415 0)
(1.00193 0.000225699 0)
(1.00324 -0.00037214 0)
(1.00408 -2.77796e-05 0)
(1.0039 0.000802466 0)
(1.00454 0.00060601 0)
(1.00522 0.000708714 0)
(1.00521 0.00119112 0)
(1.0054 0.00128953 0)
(1.00606 0.00142533 0)
(1.0069 0.00197226 0)
(1.00763 0.00262534 0)
(1.00835 0.00329538 0)
(1.00908 0.00409147 0)
(1.00978 0.00507715 0)
(1.01025 0.00612078 0)
(1.01027 0.00709711 0)
(1.00002 -0.000935649 0)
(0.999114 0.00166213 0)
(1.002 0.000141669 0)
(1.00308 -0.00112398 0)
(1.00192 0.000256072 0)
(1.00318 -0.000238228 0)
(1.00412 -3.40647e-05 0)
(1.00391 0.00090751 0)
(1.0045 0.000755212 0)
(1.00524 0.000742106 0)
(1.00525 0.0012656 0)
(1.00541 0.00146 0)
(1.00612 0.00153046 0)
(1.00702 0.00200746 0)
(1.00779 0.00268776 0)
(1.00854 0.00337485 0)
(1.00932 0.00410345 0)
(1.01008 0.00498434 0)
(1.01059 0.0059522 0)
(1.01059 0.00687305 0)
(1.00004 -0.000920604 0)
(0.999129 0.00150634 0)
(1.00184 0.000241168 0)
(1.00304 -0.00114834 0)
(1.00192 0.000298357 0)
(1.00312 -6.41193e-05 0)
(1.00416 -2.83341e-05 0)
(1.00394 0.000985797 0)
(1.00446 0.000923758 0)
(1.00526 0.000791267 0)
(1.00531 0.0013141 0)
(1.00542 0.00162104 0)
(1.00617 0.00166068 0)
(1.00715 0.00204392 0)
(1.00797 0.00271938 0)
(1.00874 0.00342825 0)
(1.00956 0.00411274 0)
(1.01038 0.00488944 0)
(1.01092 0.00576519 0)
(1.01092 0.00662582 0)
(1.00006 -0.000899619 0)
(0.999151 0.00134127 0)
(1.00168 0.000319003 0)
(1.00301 -0.00115644 0)
(1.00194 0.000359936 0)
(1.00305 0.00015043 0)
(1.00419 -1.57908e-06 0)
(1.00398 0.00103223 0)
(1.00442 0.00109756 0)
(1.00527 0.000862584 0)
(1.00538 0.00133714 0)
(1.00546 0.00175655 0)
(1.00621 0.00180961 0)
(1.00728 0.00209216 0)
(1.00816 0.00272781 0)
(1.00894 0.00344988 0)
(1.00979 0.00411037 0)
(1.01065 0.00479541 0)
(1.01124 0.00556998 0)
(1.01124 0.00636135 0)
(1.00008 -0.000870734 0)
(0.99918 0.00116477 0)
(1.00152 0.000378461 0)
(1.00297 -0.0011491 0)
(1.00198 0.000431988 0)
(1.00299 0.000400308 0)
(1.00422 5.44772e-05 0)
(1.00404 0.00105627 0)
(1.00438 0.00126884 0)
(1.00528 0.000961313 0)
(1.00546 0.00134332 0)
(1.00551 0.00185689 0)
(1.00625 0.00196233 0)
(1.00739 0.00215501 0)
(1.00836 0.00271786 0)
(1.00916 0.00343487 0)
(1.01002 0.00408521 0)
(1.01091 0.00469886 0)
(1.01154 0.00537255 0)
(1.01156 0.0060846 0)
(1.00009 -0.000833997 0)
(0.999216 0.000983526 0)
(1.00137 0.000416708 0)
(1.00294 -0.00111629 0)
(1.00204 0.000511954 0)
(1.00292 0.000674399 0)
(1.00423 0.000150189 0)
(1.00411 0.00106525 0)
(1.00436 0.00143366 0)
(1.00526 0.00109413 0)
(1.00555 0.00135508 0)
(1.00558 0.00192388 0)
(1.00629 0.00210739 0)
(1.00749 0.00223323 0)
(1.00855 0.0027011 0)
(1.00939 0.00338926 0)
(1.01025 0.00403545 0)
(1.01116 0.00459999 0)
(1.01183 0.00518119 0)
(1.01187 0.0058062 0)
(1.0001 -0.000783615 0)
(0.999257 0.000799393 0)
(1.00123 0.000478123 0)
(1.00292 -0.00106139 0)
(1.00212 0.000556925 0)
(1.00285 0.000940973 0)
(1.00422 0.000290174 0)
(1.00419 0.00106699 0)
(1.00435 0.00158593 0)
(1.00524 0.00126302 0)
(1.00563 0.0013918 0)
(1.00568 0.00196679 0)
(1.00634 0.00223898 0)
(1.00758 0.00232949 0)
(1.00873 0.0026939 0)
(1.00963 0.00332569 0)
(1.01048 0.00396174 0)
(1.0114 0.00449403 0)
(1.01209 0.00499559 0)
(1.01215 0.00553053 0)
(1.0001 -0.000720893 0)
(0.999307 0.000628733 0)
(1.0011 0.000599355 0)
(1.0029 -0.000953251 0)
(1.00223 0.000540579 0)
(1.0028 0.00116763 0)
(1.0042 0.00045595 0)
(1.00428 0.0010511 0)
(1.00436 0.00169599 0)
(1.00521 0.00143859 0)
(1.00571 0.00144014 0)
(1.00579 0.00197562 0)
(1.0064 0.00233079 0)
(1.00765 0.00242181 0)
(1.0089 0.00268945 0)
(1.00986 0.00324095 0)
(1.01072 0.00385258 0)
(1.01162 0.00436402 0)
(1.01234 0.00480409 0)
(1.01242 0.00525503 0)
(1.0001 -0.000677463 0)
(0.999367 0.000536135 0)
(1.00098 0.000692078 0)
(1.00286 -0.000838684 0)
(1.00234 0.000480032 0)
(1.00275 0.00135625 0)
(1.00415 0.000661857 0)
(1.00437 0.00105135 0)
(1.00439 0.00177926 0)
(1.00517 0.00163057 0)
(1.00576 0.00152433 0)
(1.00592 0.00197705 0)
(1.00648 0.00238956 0)
(1.00771 0.00250573 0)
(1.00904 0.00269164 0)
(1.01009 0.00314394 0)
(1.01097 0.00370818 0)
(1.01185 0.0041985 0)
(1.01256 0.00459325 0)
(1.01266 0.00497114 0)
(1.0001 -0.000601281 0)
(0.99943 0.000406394 0)
(1.00087 0.00080303 0)
(1.00281 -0.000666403 0)
(1.00247 0.000437344 0)
(1.00273 0.00151571 0)
(1.00409 0.00090131 0)
(1.00444 0.00108256 0)
(1.00443 0.00183123 0)
(1.00513 0.00181711 0)
(1.00579 0.00164254 0)
(1.00603 0.00198444 0)
(1.00657 0.00242086 0)
(1.00777 0.00257764 0)
(1.00915 0.00270789 0)
(1.01028 0.00305793 0)
(1.0112 0.003554 0)
(1.01206 0.00401429 0)
(1.01276 0.00437451 0)
(1.01287 0.00469221 0)
(1.0001 -0.000506641 0)
(0.999504 0.000265064 0)
(1.00078 0.000919529 0)
(1.00274 -0.000454274 0)
(1.0026 0.00040669 0)
(1.00274 0.00163093 0)
(1.00401 0.00115195 0)
(1.0045 0.00115044 0)
(1.0045 0.00185915 0)
(1.00509 0.00198082 0)
(1.0058 0.0017842 0)
(1.00613 0.00200751 0)
(1.00667 0.00242674 0)
(1.00783 0.0026224 0)
(1.00925 0.00272063 0)
(1.01046 0.00297648 0)
(1.01142 0.00338978 0)
(1.01227 0.00380574 0)
(1.01295 0.00413383 0)
(1.01306 0.00440217 0)
(1.00009 -0.000435575 0)
(0.999582 0.000217398 0)
(1.0007 0.00099516 0)
(1.00267 -0.000247334 0)
(1.00273 0.000376975 0)
(1.00277 0.00170831 0)
(1.00393 0.00141459 0)
(1.00453 0.00127041 0)
(1.00457 0.00188798 0)
(1.00507 0.00212291 0)
(1.00579 0.0019407 0)
(1.00621 0.00205284 0)
(1.00677 0.00241417 0)
(1.00789 0.00263031 0)
(1.00932 0.00271081 0)
(1.01059 0.00288692 0)
(1.01161 0.00321292 0)
(1.01247 0.00357144 0)
(1.01312 0.00386366 0)
(1.01322 0.00408899 0)
(1.00008 -0.000359667 0)
(0.999662 0.000195644 0)
(1.00064 0.00108525 0)
(1.00257 -8.79857e-06 0)
(1.00285 0.000382719 0)
(1.00282 0.00175063 0)
(1.00384 0.00165834 0)
(1.00454 0.00141012 0)
(1.00464 0.00189909 0)
(1.00506 0.0022152 0)
(1.00575 0.00208317 0)
(1.00626 0.0021085 0)
(1.00686 0.00239001 0)
(1.00794 0.00260573 0)
(1.00936 0.00267751 0)
(1.01069 0.00279357 0)
(1.01177 0.00303824 0)
(1.01264 0.003333 0)
(1.01327 0.00358414 0)
(1.01336 0.00376869 0)
(1.00007 -0.000273915 0)
(0.999742 0.00017155 0)
(1.00059 0.00113894 0)
(1.00246 0.000247627 0)
(1.00295 0.000432331 0)
(1.0029 0.00177435 0)
(1.00376 0.0018969 0)
(1.00451 0.00160187 0)
(1.0047 0.00194432 0)
(1.00506 0.00229767 0)
(1.00571 0.00223521 0)
(1.00628 0.00219523 0)
(1.00692 0.00237991 0)
(1.00798 0.00256349 0)
(1.00939 0.00262065 0)
(1.01076 0.00268611 0)
(1.01188 0.00285422 0)
(1.01277 0.00308048 0)
(1.0134 0.00328426 0)
(1.01346 0.0034271 0)
(1.00006 -0.000179966 0)
(0.99982 0.000136874 0)
(1.00056 0.00116673 0)
(1.00235 0.000533358 0)
(1.00303 0.000548287 0)
(1.00299 0.0017998 0)
(1.00369 0.00212661 0)
(1.00445 0.00183625 0)
(1.00474 0.00203019 0)
(1.00506 0.00236524 0)
(1.00566 0.00237435 0)
(1.00626 0.00229492 0)
(1.00695 0.00238312 0)
(1.008 0.00250583 0)
(1.0094 0.00254018 0)
(1.01079 0.00255693 0)
(1.01196 0.00265607 0)
(1.01288 0.00281195 0)
(1.01349 0.0029649 0)
(1.01354 0.00306576 0)
(1.00005 -9.89469e-05 0)
(0.999897 0.000139828 0)
(1.00056 0.00120963 0)
(1.00225 0.000817037 0)
(1.00309 0.000711387 0)
(1.0031 0.00181954 0)
(1.00364 0.00231666 0)
(1.00437 0.00208207 0)
(1.00475 0.00214758 0)
(1.00506 0.00242388 0)
(1.00561 0.00248861 0)
(1.00622 0.00239965 0)
(1.00695 0.00240692 0)
(1.008 0.0024503 0)
(1.00938 0.00244697 0)
(1.01079 0.00241004 0)
(1.012 0.0024442 0)
(1.01294 0.00252715 0)
(1.01355 0.00262519 0)
(1.01358 0.00268246 0)
(1.00004 -2.64071e-05 0)
(0.99997 0.000190064 0)
(1.00058 0.0012428 0)
(1.00214 0.00108937 0)
(1.00311 0.000909129 0)
(1.00321 0.00185918 0)
(1.00362 0.00247497 0)
(1.00428 0.00234396 0)
(1.00472 0.00230681 0)
(1.00506 0.00250186 0)
(1.00556 0.00258109 0)
(1.00615 0.00249959 0)
(1.0069 0.0024391 0)
(1.00795 0.00240076 0)
(1.00932 0.0023374 0)
(1.01074 0.00224418 0)
(1.01199 0.00220983 0)
(1.01295 0.0022223 0)
(1.01356 0.00226153 0)
(1.01358 0.0022748 0)
(1.00003 4.72697e-05 0)
(1.00003 0.000265201 0)
(1.00061 0.00126965 0)
(1.00205 0.00134336 0)
(1.00312 0.00114462 0)
(1.00331 0.00193146 0)
(1.00361 0.00261374 0)
(1.00418 0.00260194 0)
(1.00466 0.00250219 0)
(1.00502 0.00260165 0)
(1.00549 0.0026608 0)
(1.00606 0.0025862 0)
(1.00681 0.0024752 0)
(1.00786 0.0023602 0)
(1.00922 0.00222155 0)
(1.01065 0.00206456 0)
(1.01192 0.00195409 0)
(1.01291 0.00189515 0)
(1.01353 0.00187052 0)
(1.01353 0.00183633 0)
(1.00002 0.000108899 0)
(1.00009 0.000377132 0)
(1.00065 0.00132205 0)
(1.00196 0.00157856 0)
(1.00309 0.00141839 0)
(1.0034 0.00204432 0)
(1.00362 0.00275266 0)
(1.00408 0.00285317 0)
(1.00457 0.00273523 0)
(1.00496 0.00273632 0)
(1.00541 0.00275216 0)
(1.00594 0.00266681 0)
(1.00667 0.00252048 0)
(1.00771 0.00233204 0)
(1.00906 0.00211315 0)
(1.01049 0.00187861 0)
(1.01179 0.00168907 0)
(1.01281 0.00155248 0)
(1.01343 0.00146334 0)
(1.01344 0.00137547 0)
(1.00002 0.000173438 0)
(1.00013 0.000486714 0)
(1.0007 0.00137901 0)
(1.00189 0.00179908 0)
(1.00305 0.00171597 0)
(1.00346 0.00220417 0)
(1.00363 0.00289465 0)
(1.00398 0.00309711 0)
(1.00444 0.00298771 0)
(1.00485 0.00290752 0)
(1.00529 0.00286221 0)
(1.00579 0.00274802 0)
(1.0065 0.00256753 0)
(1.00751 0.00231124 0)
(1.00883 0.00201257 0)
(1.01026 0.00168717 0)
(1.01158 0.00141487 0)
(1.01263 0.00119289 0)
(1.01327 0.00103434 0)
(1.01328 0.000889108 0)
(1.00001 0.000234933 0)
(1.00017 0.000603069 0)
(1.00075 0.00145209 0)
(1.00184 0.00201109 0)
(1.00299 0.00203029 0)
(1.0035 0.00240505 0)
(1.00365 0.0030469 0)
(1.00389 0.00333182 0)
(1.00429 0.00325916 0)
(1.0047 0.00311685 0)
(1.00514 0.00300168 0)
(1.00561 0.00283902 0)
(1.00627 0.00261408 0)
(1.00724 0.00229158 0)
(1.00852 0.00190757 0)
(1.00995 0.00148868 0)
(1.01129 0.00111381 0)
(1.01237 0.000803295 0)
(1.01304 0.000561014 0)
(1.01305 0.000353951 0)
(1.00001 0.000283142 0)
(1.0002 0.000758456 0)
(1.00079 0.0015544 0)
(1.0018 0.00221573 0)
(1.00292 0.00234987 0)
(1.0035 0.00265459 0)
(1.00367 0.00322583 0)
(1.0038 0.00357592 0)
(1.00412 0.00354985 0)
(1.00451 0.00337188 0)
(1.00494 0.00317933 0)
(1.00538 0.00295312 0)
(1.00599 0.00267023 0)
(1.0069 0.00227847 0)
(1.00813 0.00180808 0)
(1.00954 0.00128542 0)
(1.0109 0.00079981 0)
(1.01201 0.000378658 0)
(1.0127 4.31919e-05 0)
(1.01274 -0.000240104 0)
(1.00001 0.000326595 0)
(1.00021 0.000924107 0)
(1.00083 0.00167942 0)
(1.00177 0.00241361 0)
(1.00284 0.00267398 0)
(1.00347 0.00294257 0)
(1.00367 0.00344583 0)
(1.00371 0.00382704 0)
(1.00393 0.00386548 0)
(1.00427 0.00366976 0)
(1.00468 0.00341203 0)
(1.00509 0.00311033 0)
(1.00565 0.00275527 0)
(1.00648 0.00228735 0)
(1.00764 0.00172165 0)
(1.00901 0.00108363 0)