/*--------------------------------*- C++ -*----------------------------------*\
| =========                 |                                                 |
| \\      /  F ield         | OpenFOAM: The Open Source CFD Toolbox           |
|  \\    /   O peration     | Version:  v2012                                 |
|   \\  /    A nd           | Website:  www.openfoam.com                      |
|    \\/     M anipulation  |                                                 |
\*---------------------------------------------------------------------------*/
FoamFile
{
    version     2.0;
    format      ascii;
    class       volScalarField;
    location    "4.55";
    object      p;
}
// * * * * * * * * * * * * * * * * * * * * * * * * * * * * * * * * * * * * * //

dimensions      [0 2 -2 0 0 0 0];


internalField   nonuniform List<scalar> 
17600
(
-8.5156e-12
-0.00246852
-0.00343295
-0.00363025
-0.00431822
-0.0041918
-0.00535034
-0.0055276
-0.00575428
-0.00610779
-0.00667495
-0.00682462
-0.00707652
-0.00695832
-0.00688169
-0.00630119
-0.00573557
-0.00432399
-0.00250847
0.00104306
6.49541e-07
-0.00247184
-0.00343135
-0.00363392
-0.00431722
-0.00419291
-0.00534676
-0.00552999
-0.0057499
-0.00611071
-0.0066714
-0.0068288
-0.0070732
-0.00697292
-0.00687651
-0.00632493
-0.00572629
-0.00437751
-0.00249544
0.000761636
-1.36807e-07
-0.00247643
-0.00342783
-0.00363978
-0.00431504
-0.00419462
-0.00534303
-0.00553343
-0.00574489
-0.00611541
-0.00666672
-0.00683551
-0.00706846
-0.00698671
-0.00686983
-0.00635167
-0.00571582
-0.00443896
-0.00249628
0.00036507
-3.40217e-06
-0.00248151
-0.0034233
-0.00364289
-0.00431208
-0.00419634
-0.00533994
-0.00553701
-0.00573999
-0.00612064
-0.00666209
-0.00684316
-0.00706358
-0.00700099
-0.00686433
-0.00637852
-0.00570884
-0.00449899
-0.00252706
-2.59209e-05
-9.04721e-06
-0.00248727
-0.00341789
-0.00364486
-0.00430844
-0.00419829
-0.00533738
-0.00554085
-0.005735
-0.00612634
-0.00665729
-0.00685177
-0.00705839
-0.00701671
-0.00685895
-0.00640698
-0.00570424
-0.00456097
-0.00258901
-0.000395743
-1.67512e-05
-0.00249379
-0.00341156
-0.00364562
-0.00430429
-0.00420073
-0.00533515
-0.00554508
-0.00572966
-0.00613253
-0.0066522
-0.00686123
-0.00705278
-0.00703369
-0.00685352
-0.00643825
-0.00570241
-0.00462644
-0.0026804
-0.000742228
-2.61104e-05
-0.00250096
-0.00340433
-0.00364518
-0.00429984
-0.00420369
-0.00533298
-0.00554967
-0.00572384
-0.00613911
-0.00664685
-0.00687136
-0.00704701
-0.00705161
-0.0068487
-0.00647122
-0.00570554
-0.00469528
-0.00279938
-0.00106961
-3.66754e-05
-0.00250864
-0.00339631
-0.00364369
-0.00429518
-0.00420707
-0.00533066
-0.00555461
-0.0057175
-0.00614603
-0.00664134
-0.00688208
-0.00704143
-0.00707029
-0.00684527
-0.00650358
-0.00571636
-0.00476647
-0.00294445
-0.00138418
-4.80658e-05
-0.00251676
-0.00338758
-0.00364132
-0.00429036
-0.00421078
-0.00532809
-0.00555992
-0.00571062
-0.00615326
-0.00663575
-0.00689336
-0.00703631
-0.00708952
-0.00684406
-0.00653513
-0.00573709
-0.00483941
-0.00311375
-0.00169224
-6.0039e-05
-0.00252528
-0.00337821
-0.00363825
-0.00428535
-0.00421476
-0.00532525
-0.00556561
-0.00570324
-0.00616077
-0.00663022
-0.0069051
-0.00703194
-0.00710888
-0.00684603
-0.00656539
-0.00576924
-0.00491431
-0.00330453
-0.00199929
-7.24742e-05
-0.00253416
-0.00336829
-0.00363465
-0.00428014
-0.00421894
-0.00532216
-0.00557166
-0.0056954
-0.0061685
-0.00662487
-0.00691711
-0.00702867
-0.0071278
-0.0068522
-0.00659402
-0.00581371
-0.00499255
-0.00351312
-0.00230953
-8.53192e-05
-0.00254337
-0.00335789
-0.00363063
-0.00427473
-0.0042233
-0.00531887
-0.00557804
-0.00568717
-0.00617631
-0.0066199
-0.00692905
-0.00702698
-0.00714569
-0.0068635
-0.00662095
-0.0058707
-0.00507662
-0.00373529
-0.00262552
-9.85476e-05
-0.00255287
-0.00334711
-0.00362622
-0.00426912
-0.00422779
-0.00531542
-0.00558467
-0.00567865
-0.00618405
-0.00661557
-0.00694057
-0.00702739
-0.00716203
-0.00688069
-0.00664675
-0.00593955
-0.00516966
-0.00396707
-0.00294828
-0.00011214
-0.00256263
-0.00333602
-0.00362143
-0.00426334
-0.00423238
-0.00531184
-0.00559147
-0.00566997
-0.00619147
-0.00661219
-0.00695128
-0.00703041
-0.00717649
-0.00690423
-0.00667282
-0.00601885
-0.00527465
-0.00420551
-0.0032776
-0.000126082
-0.00257259
-0.00332468
-0.0036162
-0.00425744
-0.00423699
-0.00530821
-0.00559831
-0.00566131
-0.00619829
-0.00661012
-0.0069608
-0.00703651
-0.00718858
-0.00693402
-0.00670124
-0.00610689
-0.00539375
-0.00444894
-0.00361246
-0.000140369
-0.0025827
-0.00331319
-0.00361047
-0.0042515
-0.00424155
-0.00530461
-0.00560503
-0.0056529
-0.00620419
-0.00660968
-0.00696882
-0.00704612
-0.00719903
-0.00696935
-0.0067343
-0.00620243
-0.00552837
-0.00469656
-0.00395125
-0.000155006
-0.00259289
-0.00330162
-0.00360416
-0.0042456
-0.00424593
-0.00530117
-0.00561143
-0.005645
-0.00620891
-0.00661113
-0.00697512
-0.00705944
-0.00720913
-0.00700913
-0.006774
-0.00630502
-0.005679
-0.0049481
-0.00429202
-0.00017001
-0.00260308
-0.00329006
-0.00359714
-0.00423987
-0.00425001
-0.00529805
-0.00561728
-0.00563785
-0.00621219
-0.00661463
-0.00697975
-0.00707618
-0.00722034
-0.00705247
-0.00682176
-0.00641483
-0.00584524
-0.00520382
-0.00463259
-0.000185414
-0.00261315
-0.00327863
-0.00358928
-0.00423446
-0.0042536
-0.00529542
-0.0056224
-0.00563168
-0.0062139
-0.00662027
-0.00698313
-0.00709547
-0.00723407
-0.00709917
-0.00687879
-0.00653225
-0.0060263
-0.00546452
-0.00497074
-0.000201258
-0.00262296
-0.00326744
-0.00358043
-0.00422955
-0.0042565
-0.00529347
-0.0056266
-0.00562664
-0.00621403
-0.00662795
-0.00698605
-0.00711618
-0.00725101
-0.00714948
-0.00694611
-0.006658
-0.0062214
-0.00573151
-0.00530497
-0.000217603
-0.00263234
-0.00325665
-0.00357038
-0.00422535
-0.00425853
-0.00529232
-0.00562972
-0.00562268
-0.00621292
-0.00663742
-0.00698935
-0.00713749
-0.00727149
-0.00720392
-0.00702444
-0.00679302
-0.00642983
-0.00600625
-0.00563501
-0.000234525
-0.00264106
-0.00324645
-0.0035589
-0.00422207
-0.00425955
-0.00529205
-0.00563179
-0.00561963
-0.00621108
-0.00664747
-0.00699381
-0.00715928
-0.00729581
-0.00726341
-0.00711447
-0.00693837
-0.00665088
-0.0062899
-0.00596195
-0.000252119
-0.00264887
-0.00323706
-0.00354577
-0.00421992
-0.00425943
-0.00529265
-0.00563291
-0.00561716
-0.00620898
-0.00665669
-0.00699986
-0.00718149
-0.00732388
-0.00732891
-0.00721718
-0.00709555
-0.00688393
-0.00658314
-0.00628796
-0.000270528
-0.00265539
-0.00322871
-0.00353075
-0.00421906
-0.00425807
-0.00529407
-0.00563342
-0.00561464
-0.00620745
-0.00666508
-0.00700749
-0.00720466
-0.00735505
-0.00740051
-0.00733358
-0.00726648
-0.00712934
-0.00688723
-0.00661632
-0.000289921
-0.00266024
-0.00322163
-0.00351366
-0.00421962
-0.00425555
-0.00529594
-0.00563408
-0.00561082
-0.00620729
-0.00667253
-0.00701633
-0.0072296
-0.00738892
-0.0074774
-0.00746347
-0.00745244
-0.00738853
-0.00720671
-0.00695225
-0.000310496
-0.00266295
-0.00321601
-0.00349435
-0.00422159
-0.00425225
-0.00529748
-0.00563607
-0.00560456
-0.00620858
-0.00667913
-0.00702561
-0.00725747
-0.007426
-0.0075578
-0.0076029
-0.00764782
-0.00766266
-0.00755428
-0.00730458
-0.000332548
-0.00266298
-0.00321202
-0.00347202
-0.00422486
-0.00424869
-0.00529776
-0.00564043
-0.00559539
-0.0062111
-0.0066855
-0.0070339
-0.00728911
-0.00746758
-0.00764122
-0.0077499
-0.00785119
-0.0079394
-0.00790641
-0.00770618
-0.000356364
-0.00265981
-0.00320975
-0.00344835
-0.00422902
-0.00424577
-0.00529556
-0.00564786
-0.00558312
-0.00621417
-0.00669291
-0.00703974
-0.00732322
-0.00751454
-0.00772869
-0.00791326
-0.0080738
-0.00822315
-0.00826518
-0.0081158
-0.000382263
-0.0026529
-0.00320919
-0.00342296
-0.00423339
-0.00424468
-0.00528983
-0.00565867
-0.00556827
-0.00621632
-0.00670321
-0.00704394
-0.00735826
-0.00757695
-0.00782669
-0.00808761
-0.00831247
-0.00851688
-0.00862655
-0.00852333
-0.000410615
-0.0026417
-0.00321018
-0.00339621
-0.00423701
-0.00424657
-0.00528002
-0.00567289
-0.00555236
-0.00621627
-0.00671956
-0.00705207
-0.00740826
-0.00765291
-0.00793067
-0.00826537
-0.00856418
-0.00882174
-0.00898674
-0.00892489
-0.000441702
-0.00262583
-0.00321222
-0.00336889
-0.00423888
-0.00425234
-0.005266
-0.00568999
-0.00553724
-0.0062145
-0.0067456
-0.00706601
-0.00745993
-0.00774063
-0.00803991
-0.00844183
-0.00882487
-0.00913834
-0.00934718
-0.00931664
-0.000475863
-0.00260508
-0.00321439
-0.00334186
-0.00423829
-0.00426242
-0.00524836
-0.00570957
-0.00552564
-0.00621268
-0.00678145
-0.00708342
-0.00751004
-0.00784024
-0.0081581
-0.00861548
-0.00908878
-0.00946514
-0.00970905
-0.00969789
-0.000513297
-0.00257947
-0.00321554
-0.0033156
-0.0042348
-0.00427724
-0.00522816
-0.0057319
-0.00552173
-0.00621048
-0.00682438
-0.00710487
-0.0075558
-0.00794902
-0.00828855
-0.00878725
-0.00934977
-0.00979802
-0.0100733
-0.0100706
-0.00055399
-0.00254948
-0.00321442
-0.00329034
-0.00422809
-0.00429712
-0.00520717
-0.00575834
-0.0055294
-0.00620485
-0.00687123
-0.00713358
-0.00759551
-0.00806203
-0.00843372
-0.00896051
-0.00960354
-0.0101321
-0.010441
-0.0104378
-0.000597907
-0.00251575
-0.00320986
-0.00326601
-0.00421824
-0.00432194
-0.00518826
-0.0057906
-0.00554761
-0.00619313
-0.00691824
-0.00717188
-0.0076303
-0.00817415
-0.00859406
-0.00914014
-0.00984902
-0.0104623
-0.0108111
-0.0108023
-0.000644792
-0.00247913
-0.00320061
-0.00324205
-0.0042062
-0.00435213
-0.0051741
-0.00582836
-0.00557578
-0.00617537
-0.00696221
-0.00722174
-0.0076635
-0.00828099
-0.00876678
-0.0093308
-0.0100884
-0.0107842
-0.0111806
-0.0111652
-0.000694246
-0.00244069
-0.00318635
-0.00321783
-0.00419277
-0.00439034
-0.00516586
-0.00586758
-0.00561351
-0.00615262
-0.00700063
-0.00728427
-0.00769953
-0.00837979
-0.00894732
-0.00953553
-0.0103257
-0.0110945
-0.011545
-0.011526
-0.000745774
-0.00240144
-0.00316775
-0.00319321
-0.00417802
-0.00443806
-0.00516249
-0.00590467
-0.00566078
-0.00612917
-0.00703117
-0.00735864
-0.00774321
-0.00846969
-0.00913016
-0.00975465
-0.0105644
-0.0113917
-0.0118992
-0.011883
-0.000798591
-0.00236232
-0.00314629
-0.00316845
-0.00416135
-0.00449286
-0.00516461
-0.0059376
-0.0057179
-0.00610865
-0.0070514
-0.00744201
-0.00779925
-0.00855196
-0.00930926
-0.0099853
-0.0108075
-0.0116764
-0.0122392
-0.0122333
-0.000851894
-0.00232402
-0.00312356
-0.00314425
-0.00414151
-0.00455379
-0.0051745
-0.00596526
-0.00578368
-0.00609435
-0.0070603
-0.00753068
-0.00787152
-0.00863007
-0.009479
-0.010222
-0.0110567
-0.0119508
-0.0125624
-0.0125737
-0.000905093
-0.002287
-0.00310103
-0.00312194
-0.00411755
-0.00461931
-0.0051938
-0.00598686
-0.00585541
-0.00608989
-0.00705794
-0.00761996
-0.00796138
-0.00870906
-0.0096358
-0.010458
-0.0113112
-0.0122177
-0.012868
-0.012901
-0.000957644
-0.00225192
-0.00308007
-0.00310324
-0.00408955
-0.00468739
-0.00522341
-0.00600205
-0.00592971
-0.00609852
-0.0070478
-0.00770404
-0.00806685
-0.00879433
-0.0097797
-0.0106869
-0.0115685
-0.0124794
-0.0131565
-0.0132126
-0.00100927
-0.00221925
-0.00306133
-0.00309092
-0.00405879
-0.00475558
-0.0052629
-0.00601098
-0.00600284
-0.00612155
-0.00703387
-0.00777813
-0.00818295
-0.00888985
-0.00991406
-0.0109048
-0.0118248
-0.0127372
-0.0134293
-0.0135063
-0.00105947
-0.00218561
-0.00304489
-0.00308935
-0.00402899
-0.00482082
-0.00531012
-0.0060142
-0.00607177
-0.00615894
-0.00702059
-0.00783976
-0.00830377
-0.00899667
-0.010043
-0.0111094
-0.0120761
-0.0129909
-0.0136877
-0.0137802
-0.00110685
-0.00215014
-0.00303172
-0.00310525
-0.00400581
-0.00487851
-0.00536213
-0.00601304
-0.00613353
-0.00620945
-0.00701283
-0.00788844
-0.00842337
-0.00911331
-0.0101697
-0.0112997
-0.0123179
-0.0132386
-0.0139323
-0.0140333
-0.00114922
-0.0021083
-0.00302544
-0.00314819
-0.00399263
-0.00492415
-0.00541708
-0.00600952
-0.0061845
-0.00626948
-0.00701441
-0.00792623
-0.0085365
-0.00923652
-0.0102955
-0.0114757
-0.0125464
-0.0134776
-0.0141629
-0.0142649
-0.00118584
-0.00206526
-0.00303011
-0.00320784
-0.0039836
-0.00495903
-0.00547673
-0.00600821
-0.00622304
-0.00633292
-0.00702683
-0.00795692
-0.00864024
-0.00936213
-0.0104207
-0.0116387
-0.0127598
-0.013706
-0.0143804
-0.0144757
-0.00122989
-0.00202904
-0.00302278
-0.00326904
-0.00398452
-0.00499166
-0.00554272
-0.00601624
-0.00625053
-0.00639509
-0.00704969
-0.00798451
-0.00873354
-0.00948549
-0.0105439
-0.0117898
-0.0129574
-0.0139228
-0.0145858
-0.0146675
-0.0012817
-0.00200962
-0.00299889
-0.00332983
-0.00399404
-0.00501536
-0.00561244
-0.00603586
-0.00626969
-0.00645104
-0.00708091
-0.00801206
-0.00881519
-0.00960101
-0.010661
-0.011928
-0.0131378
-0.0141256
-0.0147784
-0.0148411
-0.0013204
-0.00197778
-0.00301295
-0.00341308
-0.0040117
-0.00502675
-0.00568059
-0.00606717
-0.00628402
-0.00649485
-0.00711475
-0.00804086
-0.0088855
-0.00970408
-0.0107682
-0.0120512
-0.013299
-0.0143118
-0.014957
-0.0149967
-0.00136387
-0.00196478
-0.00301799
-0.00349803
-0.00403882
-0.00502899
-0.00574335
-0.00611149
-0.00629935
-0.00652684
-0.00714614
-0.00807023
-0.00894693
-0.00979371
-0.0108617
-0.0121566
-0.0134391
-0.01448
-0.015122
-0.015137
-0.00142097
-0.00195771
-0.00301118
-0.00358283
-0.00408334
-0.00503039
-0.00579999
-0.0061672
-0.00631976
-0.0065477
-0.00716884
-0.00809524
-0.00899967
-0.00987058
-0.010939
-0.0122414
-0.0135552
-0.0146284
-0.0152739
-0.0152657
-0.00148345
-0.00196014
-0.00299734
-0.00366867
-0.00414642
-0.00503404
-0.00584625
-0.00622958
-0.00634805
-0.00655998
-0.00717808
-0.00811074
-0.00904332
-0.00993634
-0.0110008
-0.0123018
-0.0136411
-0.0147497
-0.0154078
-0.0153817
-0.00154827
-0.00197481
-0.00299514
-0.00375476
-0.00422545
-0.00504111
-0.00587741
-0.00629301
-0.00638724
-0.00656807
-0.0071708
-0.00811025
-0.00907394
-0.00999045
-0.0110471
-0.012336
-0.0136912
-0.0148353
-0.0155156
-0.0154818
-0.0016161
-0.00200141
-0.00300433
-0.00384184
-0.00431996
-0.00505591
-0.00589404
-0.00635163
-0.0064365
-0.00657559
-0.00714574
-0.0080871
-0.00908416
-0.0100282
-0.0110769
-0.0123441
-0.013703
-0.0148785
-0.0155896
-0.015561
-0.00169367
-0.00204581
-0.00301568
-0.00392518
-0.0044285
-0.00508386
-0.00590041
-0.00640032
-0.00649202
-0.00658613
-0.00710621
-0.00803734
-0.00906588
-0.0100414
-0.0110855
-0.0123257
-0.0136762
-0.0148743
-0.015621
-0.0156104
-0.00178134
-0.00210375
-0.00303489
-0.00400484
-0.00454907
-0.00512973
-0.00590039
-0.00643335
-0.00654671
-0.00660151
-0.00705684
-0.00796004
-0.00901253
-0.0100216
-0.0110669
-0.0122799
-0.0136114
-0.0148225
-0.0156028
-0.0156204
-0.00188183
-0.00217357
-0.00306615
-0.00408135
-0.00467743
-0.00519418
-0.00589834
-0.00644866
-0.00659421
-0.00662124
-0.00700266
-0.00785582
-0.00891729
-0.00995932
-0.0110132
-0.012202
-0.0135076
-0.0147214
-0.0155309
-0.0155822
-0.00199582
-0.00227742
-0.00310458
-0.00415584
-0.00480996
-0.00527729
-0.00590138
-0.00644944
-0.00662953
-0.00664047
-0.00694403
-0.00772457
-0.00877312
-0.00984257
-0.0109115
-0.0120819
-0.013359
-0.0145659
-0.0153982
-0.0154866
-0.00211413
-0.002376
-0.00318803
-0.00424039
-0.00494442
-0.00537743
-0.00591342
-0.00643676
-0.00664577
-0.0066505
-0.00687815
-0.00756811
-0.00857949
-0.00966438
-0.0107505
-0.0119084
-0.0131576
-0.0143518
-0.015201
-0.0153296
-0.00224923
-0.00251255
-0.00328571
-0.00432879
-0.00507805
-0.00549306
-0.00593995
-0.00641574
-0.00664122
-0.00664508
-0.00680215
-0.00738861
-0.00833596
-0.00941559
-0.010514
-0.0116637
-0.0128875
-0.0140687
-0.0149325
-0.015096
-0.00241034
-0.00266338
-0.00340475
-0.00442367
-0.00521077
-0.00562284
-0.00598687
-0.00639446
-0.00661639
-0.00661827
-0.0067096
-0.00718325
-0.00803911
-0.00908573
-0.0101844
-0.0113275
-0.0125274
-0.0136931
-0.0145639
-0.0147667
-0.00259707
-0.00284852
-0.00353986
-0.00453048
-0.00534382
-0.00576382
-0.00605795
-0.00638272
-0.00657508
-0.00656611
-0.0065937
-0.0069473
-0.0076851
-0.00866476
-0.0097403
-0.0108737
-0.0120589
-0.0131979
-0.0140752
-0.0143233
-0.00280581
-0.00304124
-0.00371448
-0.00466061
-0.00547887
-0.00591489
-0.00615716
-0.0063926
-0.00652937
-0.00649081
-0.00645037
-0.00667568
-0.00726932
-0.0081394
-0.0091516
-0.0102485
-0.011407
-0.0125395
-0.0134361
-0.0137412
-0.00304286
-0.00326361
-0.00390988
-0.00480805
-0.00561396
-0.00607676
-0.00628486
-0.00643016
-0.00649695
-0.00640988
-0.00628776
-0.00636834
-0.00678412
-0.00749555
-0.00839394
-0.00941638
-0.0105343
-0.0116625
-0.0125957
-0.0129841
-0.00333859
-0.00352032
-0.00411835
-0.00492426
-0.00573455
-0.00624975
-0.00643979
-0.00649575
-0.00648446
-0.00634547
-0.00612503
-0.00602988
-0.0062191
-0.00670556
-0.0074259
-0.00831544
-0.0093506
-0.010463
-0.0114586
-0.0119842
-0.0036943
-0.00396825
-0.00435593
-0.00498927
-0.00584122
-0.00642382
-0.00659605
-0.00657241
-0.00649034
-0.00631057
-0.0060024
-0.0056885
-0.00557003
-0.00572105
-0.00614114
-0.00680263
-0.0076688
-0.00872244
-0.00981453
-0.0105849
-0.00399028
-0.00414084
-0.00469758
-0.00540468
-0.00612304
-0.00659735
-0.00672865
-0.00665324
-0.00650755
-0.00631319
-0.0059864
-0.00550716
-0.00495532
-0.00451259
-0.00434481
-0.00452385
-0.00504047
-0.00581284
-0.00674863
-0.00767433
-0.00435688
-0.00451482
-0.00508495
-0.00577847
-0.00638961
-0.00675676
-0.00683543
-0.00673405
-0.00653122
-0.00625687
-0.0060412
-0.00575549
-0.00495208
-0.00386203
-0.00305435
-0.00268961
-0.00256558
-0.00244331
-0.00219496
-0.00191237
-0.00483
-0.00500198
-0.00547989
-0.00610121
-0.00661638
-0.0068971
-0.00691695
-0.00680342
-0.00663914
-0.00601728
-0.00496769
-0.00391055
-0.00303313
-0.00236856
-0.00181671
-0.00124807
-0.000589179
0.000161375
0.000842417
0.00108148
-0.00536471
-0.00551234
-0.0059481
-0.00644423
-0.00679743
-0.00698106
-0.00696005
-0.00640739
-0.00556977
-0.00475615
-0.00404508
-0.00340682
-0.00277721
-0.00205106
-0.00119608
-0.000230482
0.000789985
0.00175015
0.00244184
0.00251937
-0.00602426
-0.00607366
-0.00641836
-0.00678597
-0.00690863
-0.00659264
-0.00608125
-0.00550819
-0.00496081
-0.00446807
-0.00393402
-0.00327201
-0.00243624
-0.00144002
-0.000338044
0.000821189
0.00197311
0.00298947
0.00364321
0.00360015
-0.00686084
-0.00694177
-0.00676478
-0.00653419
-0.00628416
-0.00598141
-0.00563593
-0.00526822
-0.00484243
-0.00432673
-0.00367363
-0.00284329
-0.00185326
-0.000744784
0.000453389
0.0016903
0.0028794
0.00388229
0.00448265
0.00435444
-0.00755802
-0.0074897
-0.00701715
-0.00644577
-0.00598334
-0.00565858
-0.00537562
-0.00504637
-0.00460302
-0.00400848
-0.00325731
-0.00235347
-0.00130919
-0.0001465
0.00109576
0.00235796
0.00354985
0.00453227
0.00508957
0.00489852
-0.00808827
-0.00791402
-0.00730494
-0.00654359
-0.0058862
-0.00542168
-0.00507709
-0.00471605
-0.0042461
-0.00362834
-0.00285296
-0.00192237
-0.000849495
0.000340824
0.0016059
0.00288158
0.00407327
0.00503826
0.00556015
0.00531835
-0.00854167
-0.00829088
-0.0075737
-0.00666033
-0.00583143
-0.00521796
-0.00477337
-0.00437145
-0.0038973
-0.00328217
-0.00250159
-0.0015581
-0.000466889
0.000742021
0.00202189
0.00330472
0.00449244
0.00544016
0.00593149
0.00564842
-0.00892802
-0.00862344
-0.00779405
-0.00675783
-0.00579458
-0.00505437
-0.0045204
-0.00407567
-0.00359173
-0.00298067
-0.00220138
-0.00124983
-0.000145287
0.00107635
0.00236443
0.00364851
0.00482889
0.00575991
0.00622577
0.00591044
-0.00923398
-0.0088769
-0.00798069
-0.00684862
-0.00577908
-0.00493856
-0.00432782
-0.00383892
-0.00333746
-0.00272353
-0.00194528
-0.000992532
0.000117011
0.00134491
0.0026358
0.00391751
0.00508955
0.00600625
0.00645251
0.00611363
-0.00946246
-0.00907598
-0.00812705
-0.00693055
-0.00578877
-0.00487696
-0.00420525
-0.00367088
-0.00313915
-0.00250534
-0.00171483
-0.000755843
0.00035412
0.00157818
0.00286472
0.00413955
0.00530169
0.00620578
0.00663709
0.00628125
-0.00960546
-0.00921002
-0.00823767
-0.00700832
-0.00582928
-0.00487922
-0.00417022
-0.0036015
-0.00304219
-0.00238741
-0.00157694
-0.000597664
0.000530114
0.00176486
0.00305104
0.00431874
0.00547113
0.0063656
0.00678947
0.00642808
0.0050388
0.000384535
-0.00672663
-0.011825
-0.0128561
-0.0115419
-0.00999856
-0.00894144
-0.00834392
-0.00803822
-0.0079002
-0.0078623
-0.00788986
-0.00795856
-0.00804619
-0.0081364
-0.00822018
-0.00829347
-0.00835625
-0.00841221
-0.00846583
-0.00851945
-0.00857337
-0.00862739
-0.00868212
-0.00873928
-0.00880048
-0.00886597
-0.00893433
-0.00900413
-0.00907488
-0.00914657
-0.00921869
-0.00929042
-0.00936111
-0.00943029
-0.00949762
-0.00956296
-0.00962637
-0.00968838
-0.00974919
-0.00980864
-0.00986608
-0.00992141
-0.00997511
-0.0100278
-0.0100793
-0.0101294
-0.0101777
-0.0102246
-0.0102703
-0.0103151
-0.0103589
-0.0104015
-0.0104432
-0.0104842
-0.0105245
-0.0105643
-0.0106032
-0.0106412
-0.0106782
-0.0107145
-0.0107503
-0.0107855
-0.0108197
-0.0108528
-0.0108849
-0.0109163
-0.0109473
-0.0109775
-0.0110071
-0.0110361
-0.0110645
-0.0110924
-0.0111199
-0.0111469
-0.0111736
-0.0112
-0.0112262
-0.0112522
-0.0112778
-0.0113033
-0.0113288
-0.0113543
-0.0113797
-0.0114049
-0.0114296
-0.0114542
-0.0114787
-0.0115029
-0.0115266
-0.0115501
-0.0115734
-0.0115964
-0.011619
-0.0116411
-0.0116632
-0.0116849
-0.0117063
-0.0117271
-0.0117477
-0.0117678
-0.0117878
-0.0118072
-0.0118264
-0.0118451
-0.0118635
-0.0118817
-0.0118995
-0.0119173
-0.0119347
-0.0119522
-0.0119691
-0.0119861
-0.0120026
-0.0120192
-0.0120352
-0.0120511
-0.0120664
-0.0120816
-0.0120964
-0.0121109
-0.0121253
-0.012139
-0.0121526
-0.0121655
-0.0121786
-0.0121909
-0.0122032
-0.0122146
-0.012226
-0.0122368
-0.0122475
-0.0122578
-0.0122675
-0.0122772
-0.012286
-0.0122952
-0.0123034
-0.0123118
-0.0123192
-0.0123266
-0.0123334
-0.0123399
-0.0123461
-0.0123514
-0.0123569
-0.0123613
-0.0123665
-0.0123702
-0.0123741
-0.012377
-0.0123802
-0.0123829
-0.0123845
-0.0123863
-0.0123867
-0.0123883
-0.0123878
-0.012388
-0.0123866
-0.0123857
-0.0123842
-0.0123814
-0.0123793
-0.0123751
-0.0123727
-0.0123675
-0.0123635
-0.012358
-0.0123525
-0.0123472
-0.0123392
-0.0123336
-0.0123243
-0.0123174
-0.0123073
-0.012298
-0.0122885
-0.0122767
-0.0122672
-0.0122533
-0.0122428
-0.0122289
-0.0122153
-0.0122022
-0.0121848
-0.0121724
-0.0121522
-0.0121379
-0.0121175
-0.0120983
-0.012079
-0.0120541
-0.0120332
-0.0120067
-0.0119789
-0.011955
-0.0119223
-0.011909
0.00432224
0.000200473
-0.00665191
-0.0116868
-0.0127726
-0.0115023
-0.00997373
-0.0089238
-0.00833114
-0.00802853
-0.00789243
-0.00785579
-0.00788426
-0.00795365
-0.00804183
-0.0081325
-0.00821666
-0.00829028
-0.00835333
-0.00840952
-0.00846333
-0.00851713
-0.0085712
-0.00862536
-0.00868022
-0.00873749
-0.00879879
-0.00886437
-0.00893282
-0.0090027
-0.00907352
-0.00914529
-0.00921747
-0.00928926
-0.00936
-0.00942924
-0.00949662
-0.009562
-0.00962545
-0.0096875
-0.00974835
-0.00980784
-0.00986531
-0.00992066
-0.0099744
-0.0100271
-0.0100787
-0.0101288
-0.0101771
-0.010224
-0.0102698
-0.0103146
-0.0103584
-0.010401
-0.0104427
-0.0104837
-0.0105241
-0.0105638
-0.0106028
-0.0106408
-0.0106778
-0.0107141
-0.0107499
-0.0107851
-0.0108194
-0.0108525
-0.0108846
-0.010916
-0.0109469
-0.0109772
-0.0110068
-0.0110358
-0.0110642
-0.0110921
-0.0111196
-0.0111466
-0.0111733
-0.0111998
-0.011226
-0.0112519
-0.0112776
-0.0113031
-0.0113285
-0.0113541
-0.0113795
-0.0114047
-0.0114294
-0.011454
-0.0114785
-0.0115027
-0.0115265
-0.01155
-0.0115732
-0.0115962
-0.0116188
-0.011641
-0.0116631
-0.0116847
-0.0117062
-0.011727
-0.0117476
-0.0117677
-0.0117877
-0.0118071
-0.0118262
-0.0118449
-0.0118634
-0.0118815
-0.0118994
-0.0119172
-0.0119346
-0.0119521
-0.011969
-0.011986
-0.0120025
-0.0120191
-0.0120351
-0.012051
-0.0120663
-0.0120815
-0.0120963
-0.0121108
-0.0121252
-0.0121389
-0.0121525
-0.0121654
-0.0121785
-0.0121908
-0.0122031
-0.0122145
-0.0122259
-0.0122368
-0.0122474
-0.0122577
-0.0122674
-0.0122771
-0.0122859
-0.0122951
-0.0123033
-0.0123118
-0.0123191
-0.0123265
-0.0123333
-0.0123398
-0.012346
-0.0123513
-0.0123568
-0.0123612
-0.0123665
-0.0123701
-0.0123741
-0.0123769
-0.0123801
-0.0123829
-0.0123844
-0.0123862
-0.0123867
-0.0123883
-0.0123877
-0.0123879
-0.0123866
-0.0123857
-0.0123842
-0.0123814
-0.0123792
-0.0123751
-0.0123727
-0.0123675
-0.0123634
-0.012358
-0.0123524
-0.0123472
-0.0123392
-0.0123336
-0.0123242
-0.0123174
-0.0123073
-0.012298
-0.0122885
-0.0122767
-0.0122672
-0.0122533
-0.0122428
-0.0122288
-0.0122153
-0.0122021
-0.0121848
-0.0121724
-0.0121522
-0.0121378
-0.0121175
-0.0120983
-0.0120789
-0.012054
-0.0120332
-0.0120067
-0.0119788
-0.0119549
-0.0119223
-0.0119089
0.00356465
1.06358e-05
-0.00648717
-0.0114269
-0.0126217
-0.0114434
-0.0099425
-0.00889967
-0.008312
-0.00801378
-0.00788105
-0.00784684
-0.00787702
-0.00794763
-0.00803669
-0.00812801
-0.00821269
-0.00828674
-0.00835015
-0.00840664
-0.0084607
-0.0085147
-0.00856895
-0.00862327
-0.00867827
-0.00873566
-0.00879707
-0.00886275
-0.00893129
-0.00900126
-0.00907216
-0.009144
-0.00921626
-0.0092881
-0.0093589
-0.0094282
-0.00949563
-0.00956106
-0.00962455
-0.00968663
-0.00974752
-0.00980704
-0.00986455
-0.00991993
-0.0099737
-0.0100264
-0.010078
-0.0101282
-0.0101765
-0.0102234
-0.0102692
-0.010314
-0.0103579
-0.0104005
-0.0104422
-0.0104832
-0.0105236
-0.0105634
-0.0106024
-0.0106404
-0.0106774
-0.0107137
-0.0107495
-0.0107847
-0.010819
-0.0108522
-0.0108843
-0.0109157
-0.0109466
-0.0109769
-0.0110066
-0.0110355
-0.0110639
-0.0110919
-0.0111193
-0.0111464
-0.0111731
-0.0111995
-0.0112257
-0.0112517
-0.0112774
-0.0113029
-0.0113283
-0.0113539
-0.0113793
-0.0114045
-0.0114292
-0.0114539
-0.0114783
-0.0115025
-0.0115263
-0.0115498
-0.0115731
-0.011596
-0.0116187
-0.0116408
-0.0116629
-0.0116846
-0.011706
-0.0117268
-0.0117474
-0.0117676
-0.0117875
-0.011807
-0.0118261
-0.0118448
-0.0118633
-0.0118814
-0.0118993
-0.011917
-0.0119345
-0.011952
-0.0119689
-0.0119859
-0.0120024
-0.012019
-0.0120351
-0.0120509
-0.0120662
-0.0120814
-0.0120962
-0.0121108
-0.0121251
-0.0121388
-0.0121524
-0.0121653
-0.0121784
-0.0121907
-0.012203
-0.0122144
-0.0122258
-0.0122367
-0.0122473
-0.0122576
-0.0122673
-0.012277
-0.0122859
-0.0122951
-0.0123032
-0.0123117
-0.0123191
-0.0123265
-0.0123333
-0.0123398
-0.012346
-0.0123512
-0.0123568
-0.0123612
-0.0123664
-0.01237
-0.012374
-0.0123769
-0.0123801
-0.0123828
-0.0123844
-0.0123862
-0.0123866
-0.0123882
-0.0123877
-0.0123879
-0.0123866
-0.0123856
-0.0123842
-0.0123813
-0.0123792
-0.012375
-0.0123726
-0.0123674
-0.0123634
-0.012358
-0.0123524
-0.0123472
-0.0123392
-0.0123335
-0.0123242
-0.0123174
-0.0123072
-0.0122979
-0.0122884
-0.0122766
-0.0122672
-0.0122532
-0.0122428
-0.0122288
-0.0122153
-0.0122021
-0.0121847
-0.0121724
-0.0121522
-0.0121378
-0.0121175
-0.0120983
-0.0120789
-0.012054
-0.0120331
-0.0120066
-0.0119788
-0.0119549
-0.0119222
-0.0119089
0.00284783
-0.000158473
-0.00625542
-0.0110837
-0.0124121
-0.0113599
-0.00989855
-0.00886383
-0.00828241
-0.00799098
-0.00786386
-0.00783374
-0.00786678
-0.00793934
-0.00802973
-0.008122
-0.00820743
-0.00828212
-0.00834608
-0.00840305
-0.00845749
-0.0085118
-0.0085663
-0.00862083
-0.00867603
-0.00873359
-0.00879515
-0.00886095
-0.0089296
-0.00899967
-0.00907066
-0.0091426
-0.00921494
-0.00928685
-0.00935771
-0.00942708
-0.00949457
-0.00956006
-0.00962359
-0.00968573
-0.00974666
-0.00980622
-0.00986375
-0.00991917
-0.00997297
-0.0100257
-0.0100774
-0.0101275
-0.0101759
-0.0102228
-0.0102686
-0.0103135
-0.0103573
-0.0104
-0.0104417
-0.0104827
-0.0105232
-0.010563
-0.010602
-0.01064
-0.010677
-0.0107133
-0.0107492
-0.0107844
-0.0108187
-0.0108518
-0.010884
-0.0109154
-0.0109463
-0.0109766
-0.0110063
-0.0110352
-0.0110637
-0.0110916
-0.0111191
-0.0111461
-0.0111728
-0.0111993
-0.0112255
-0.0112515
-0.0112771
-0.0113027
-0.0113281
-0.0113537
-0.0113791
-0.0114043
-0.011429
-0.0114537
-0.0114781
-0.0115023
-0.0115261
-0.0115496
-0.0115729
-0.0115959
-0.0116185
-0.0116407
-0.0116628
-0.0116844
-0.0117059
-0.0117267
-0.0117473
-0.0117674
-0.0117874
-0.0118068
-0.011826
-0.0118447
-0.0118631
-0.0118813
-0.0118992
-0.0119169
-0.0119344
-0.0119518
-0.0119688
-0.0119858
-0.0120023
-0.0120189
-0.012035
-0.0120508
-0.0120661
-0.0120813
-0.0120961
-0.0121107
-0.012125
-0.0121387
-0.0121524
-0.0121653
-0.0121784
-0.0121907
-0.0122029
-0.0122144
-0.0122258
-0.0122366
-0.0122472
-0.0122576
-0.0122672
-0.012277
-0.0122858
-0.012295
-0.0123032
-0.0123117
-0.012319
-0.0123264
-0.0123332
-0.0123397
-0.0123459
-0.0123512
-0.0123567
-0.0123611
-0.0123663
-0.01237
-0.012374
-0.0123768
-0.01238
-0.0123828
-0.0123843
-0.0123862
-0.0123866
-0.0123882
-0.0123876
-0.0123878
-0.0123865
-0.0123856
-0.0123841
-0.0123813
-0.0123792
-0.012375
-0.0123726
-0.0123674
-0.0123634
-0.0123579
-0.0123524
-0.0123471
-0.0123391
-0.0123335
-0.0123242
-0.0123173
-0.0123072
-0.0122979
-0.0122884
-0.0122766
-0.0122672
-0.0122532
-0.0122427
-0.0122288
-0.0122152
-0.0122021
-0.0121847
-0.0121724
-0.0121522
-0.0121378
-0.0121174
-0.0120982
-0.0120789
-0.012054
-0.0120331
-0.0120066
-0.0119788
-0.0119549
-0.0119222
-0.0119089
0.00216469
-0.000334515
-0.00600454
-0.0107107
-0.0121766
-0.011265
-0.00984825
-0.00881939
-0.00824306
-0.00795949
-0.00783969
-0.00781516
-0.00785221
-0.00792755
-0.00801985
-0.00811347
-0.00819996
-0.00827556
-0.00834036
-0.00839807
-0.00845313
-0.0085079
-0.00856276
-0.00861762
-0.00867312
-0.00873096
-0.00879273
-0.0088587
-0.00892749
-0.00899768
-0.00906881
-0.00914088
-0.00921332
-0.00928533
-0.00935627
-0.00942572
-0.00949329
-0.00955885
-0.00962246
-0.00968466
-0.00974565
-0.00980524
-0.00986282
-0.00991828
-0.00997212
-0.0100249
-0.0100766
-0.0101268
-0.0101752
-0.0102221
-0.010268
-0.0103129
-0.0103567
-0.0103994
-0.0104412
-0.0104822
-0.0105227
-0.0105625
-0.0106015
-0.0106395
-0.0106766
-0.0107129
-0.0107488
-0.010784
-0.0108183
-0.0108514
-0.0108836
-0.010915
-0.010946
-0.0109763
-0.0110059
-0.0110349
-0.0110634
-0.0110913
-0.0111188
-0.0111459
-0.0111725
-0.011199
-0.0112252
-0.0112513
-0.0112769
-0.0113024
-0.0113279
-0.0113535
-0.0113789
-0.0114041
-0.0114288
-0.0114535
-0.0114779
-0.0115022
-0.0115259
-0.0115494
-0.0115727
-0.0115957
-0.0116183
-0.0116405
-0.0116626
-0.0116843
-0.0117057
-0.0117266
-0.0117472
-0.0117673
-0.0117873
-0.0118067
-0.0118258
-0.0118446
-0.011863
-0.0118812
-0.011899
-0.0119168
-0.0119343
-0.0119517
-0.0119687
-0.0119857
-0.0120022
-0.0120188
-0.0120349
-0.0120507
-0.012066
-0.0120812
-0.0120961
-0.0121106
-0.0121249
-0.0121386
-0.0121523
-0.0121652
-0.0121783
-0.0121906
-0.0122028