/*--------------------------------*- C++ -*----------------------------------*\
| =========                 |                                                 |
| \\      /  F ield         | OpenFOAM: The Open Source CFD Toolbox           |
|  \\    /   O peration     | Version:  v2012                                 |
|   \\  /    A nd           | Website:  www.openfoam.com                      |
|    \\/     M anipulation  |                                                 |
\*---------------------------------------------------------------------------*/
FoamFile
{
    version     2.0;
    format      ascii;
    class       volVectorField;
    location    "4.55";
    object      U;
}
// * * * * * * * * * * * * * * * * * * * * * * * * * * * * * * * * * * * * * //

dimensions      [0 1 -1 0 0 0 0];


internalField   nonuniform List<vector> 
17600
(
(0.8465 0.00558438 0)
(1.15114 -0.00691022 0)
(0.830129 0.00343067 0)
(1.14851 9.6026e-05 0)
(0.828932 -0.0012905 0)
(1.1354 0.00107475 0)
(0.838956 2.21376e-05 0)
(1.12766 -0.000721196 0)
(0.842573 -7.47938e-05 0)
(1.11987 -0.00116999 0)
(0.848946 0.00042242 0)
(1.115 -0.000923877 0)
(0.85445 0.00133326 0)
(1.11158 -0.000143701 0)
(0.857682 0.00226432 0)
(1.10876 0.00037308 0)
(0.85591 0.00295213 0)
(1.10655 0.000735577 0)
(0.84681 0.00389151 0)
(1.10353 0.00118582 0)
(0.854968 0.00551554 0)
(1.13686 -0.00659204 0)
(0.837945 0.00328521 0)
(1.1322 0.000306534 0)
(0.842275 -0.00138382 0)
(1.11831 0.00117345 0)
(0.857085 -0.000120876 0)
(1.10802 -0.000528594 0)
(0.865011 -0.00026085 0)
(1.09632 -0.00101174 0)
(0.876545 0.000227382 0)
(1.08562 -0.000749504 0)
(0.889852 0.00115966 0)
(1.07288 7.37806e-05 0)
(0.905861 0.00221647 0)
(1.05493 0.00049689 0)
(0.924639 0.00325036 0)
(1.02865 0.00050663 0)
(0.947206 0.00529144 0)
(0.98807 0.000244831 0)
(0.871679 0.0054891 0)
(1.11494 -0.00627456 0)
(0.85549 0.00312683 0)
(1.10438 0.000447607 0)
(0.868305 -0.00144859 0)
(1.0877 0.00120438 0)
(0.888301 -0.000192622 0)
(1.07511 -0.000438958 0)
(0.901475 -0.000313813 0)
(1.05952 -0.000977075 0)
(0.917789 0.000204094 0)
(1.04442 -0.000800969 0)
(0.935474 0.00121777 0)
(1.02812 -0.000108982 0)
(0.953923 0.00241051 0)
(1.0104 0.000246394 0)
(0.969768 0.00359902 0)
(0.992894 0.000328675 0)
(0.97895 0.00568418 0)
(0.977351 0.00123554 0)
(0.89424 0.00551656 0)
(1.08976 -0.00601242 0)
(0.880906 0.00307039 0)
(1.07215 0.000446717 0)
(0.901648 -0.0014215 0)
(1.05277 0.00111556 0)
(0.923006 -0.000167768 0)
(1.04081 -0.000498419 0)
(0.937633 -0.000224401 0)
(1.02565 -0.0010997 0)
(0.952996 0.000332393 0)
(1.01283 -0.00100141 0)
(0.966839 0.0014007 0)
(1.0022 -0.0003674 0)
(0.978134 0.00264173 0)
(0.994096 2.74827e-05 0)
(0.984316 0.00382628 0)
(0.988399 0.000316982 0)
(0.984046 0.00581043 0)
(0.983014 0.00229884 0)
(0.919182 0.00556953 0)
(1.06523 -0.00580116 0)
(0.909673 0.00311915 0)
(1.04272 0.000342726 0)
(0.934434 -0.0013168 0)
(1.02339 0.000966249 0)
(0.952469 -0.000103252 0)
(1.0156 -0.000618961 0)
(0.964137 -9.95892e-05 0)
(1.00495 -0.00124928 0)
(0.974519 0.000458509 0)
(0.997818 -0.00116157 0)
(0.982037 0.00151967 0)
(0.993756 -0.00051349 0)
(0.987069 0.00274379 0)
(0.991719 -5.11305e-05 0)
(0.988778 0.0039141 0)
(0.989837 0.000402078 0)
(0.986849 0.00588796 0)
(0.985677 0.00324966 0)
(0.94292 0.00562526 0)
(1.0445 -0.00563885 0)
(0.936891 0.00323414 0)
(1.02114 0.000178618 0)
(0.960778 -0.00118119 0)
(1.00506 0.000821686 0)
(0.973097 -5.34455e-05 0)
(1.00266 -0.000729125 0)
(0.980221 -8.04399e-06 0)
(0.997059 -0.00135134 0)
(0.985751 0.000527191 0)
(0.994213 -0.00124379 0)
(0.988954 0.00155751 0)
(0.99331 -0.00057887 0)
(0.991115 0.00275569 0)
(0.993039 -6.42294e-05 0)
(0.991613 0.0039262 0)
(0.991782 0.000544648 0)
(0.989621 0.00592821 0)
(0.988042 0.00410377 0)
(0.962718 0.00566619 0)
(1.02918 -0.00551883 0)
(0.959165 0.00337108 0)
(1.00868 6.22849e-06 0)
(0.978842 -0.00105643 0)
(0.997262 0.000711576 0)
(0.985965 -3.64467e-05 0)
(0.998841 -0.000807786 0)
(0.989445 4.38684e-05 0)
(0.99647 -0.00140895 0)
(0.992034 0.000558708 0)
(0.995424 -0.00128255 0)
(0.993128 0.00156325 0)
(0.995267 -0.000610254 0)
(0.994127 0.00273724 0)
(0.99517 -4.86535e-05 0)
(0.994159 0.00388651 0)
(0.993979 0.000767636 0)
(0.992122 0.00589736 0)
(0.990631 0.0049136 0)
(0.97732 0.00568075 0)
(1.01911 -0.00542913 0)
(0.975299 0.00349419 0)
(1.00337 -0.000140923 0)
(0.989849 -0.000961511 0)
(0.99603 0.000633551 0)
(0.993723 -4.16037e-05 0)
(0.999403 -0.000862255 0)
(0.995061 7.39098e-05 0)
(0.998416 -0.00144301 0)
(0.996253 0.000579499 0)
(0.997774 -0.00129952 0)
(0.996352 0.00156459 0)
(0.997547 -0.000619447 0)
(0.996717 0.00271036 0)
(0.997283 -8.32405e-09 0)
(0.996398 0.00380751 0)
(0.996044 0.00106824 0)
(0.994322 0.00580407 0)
(0.992974 0.00567789 0)
(0.986947 0.00566661 0)
(1.01303 -0.00535821 0)
(0.985846 0.00358376 0)
(1.0021 -0.000252774 0)
(0.99606 -0.000894541 0)
(0.997389 0.000573407 0)
(0.998444 -5.24891e-05 0)
(1.00107 -0.000903599 0)
(0.998676 9.69015e-05 0)
(1.00051 -0.00146523 0)
(0.999266 0.000599868 0)
(0.999871 -0.00130053 0)
(0.99885 0.00156626 0)
(0.999466 -0.000606601 0)
(0.99879 0.00267231 0)
(0.999008 9.24419e-05 0)
(0.998189 0.00369683 0)
(0.997689 0.00142888 0)
(0.996099 0.00567656 0)
(0.994839 0.0063763 0)
(0.992736 0.0056291 0)
(1.00944 -0.00529753 0)
(0.992191 0.00363619 0)
(1.00237 -0.000333262 0)
(0.999418 -0.000845904 0)
(0.999035 0.000520074 0)
(1.00128 -5.99468e-05 0)
(1.00246 -0.000937875 0)
(1.00092 0.000118585 0)
(1.00201 -0.00148061 0)
(1.00128 0.000619629 0)
(1.00138 -0.00128796 0)
(1.00063 0.00156384 0)
(1.00088 -0.000570524 0)
(1.00031 0.00261465 0)
(1.00028 0.000229157 0)
(0.999508 0.00355834 0)
(0.998895 0.00183044 0)
(0.997432 0.00554475 0)
(0.99624 0.0069867 0)
(0.996027 0.00557617 0)
(1.00726 -0.00524094 0)
(0.995789 0.00365685 0)
(1.0029 -0.000390362 0)
(1.00119 -0.000807566 0)
(1.00019 0.000469022 0)
(1.00288 -6.23103e-05 0)
(1.00328 -0.000967165 0)
(1.00218 0.00013888 0)
(1.00288 -0.00149126 0)
(1.00249 0.000634503 0)
(1.00236 -0.00126346 0)
(1.0018 0.00154915 0)
(1.00188 -0.000509289 0)
(1.00137 0.0025313 0)
(1.00121 0.000407706 0)
(1.00047 0.00339778 0)
(0.999789 0.00225257 0)
(0.998448 0.00543839 0)
(0.997317 0.00749182 0)
(0.997884 0.00551415 0)
(1.00585 -0.00518381 0)
(0.997772 0.0036528 0)
(1.00326 -0.000430866 0)
(1.00212 -0.000775404 0)
(1.00083 0.000420199 0)
(1.00372 -6.10751e-05 0)
(1.00366 -0.000991945 0)
(1.00279 0.00015586 0)
(1.00332 -0.0014975 0)
(1.00315 0.000639422 0)
(1.00296 -0.00122787 0)
(1.00255 0.0015151 0)
(1.00258 -0.000423613 0)
(1.00213 0.00241929 0)
(1.00192 0.000620235 0)
(1.00122 0.00322641 0)
(1.0005 0.00267049 0)
(0.999288 0.0053829 0)
(0.99822 0.00788452 0)
(0.998965 0.0054464 0)
(1.00491 -0.00512293 0)
(0.998878 0.00362937 0)
(1.00345 -0.000459058 0)
(1.0026 -0.000748452 0)
(1.00115 0.000374786 0)
(1.00413 -5.86887e-05 0)
(1.00379 -0.0010119 0)
(1.00304 0.000167404 0)
(1.0035 -0.00149833 0)
(1.00349 0.000630049 0)
(1.00331 -0.0011807 0)
(1.00303 0.00145734 0)
(1.00307 -0.000316459 0)
(1.0027 0.00227934 0)
(1.00246 0.000854576 0)
(1.00183 0.00306272 0)
(1.00111 0.00305833 0)
(1.00003 0.00539266 0)
(0.99903 0.00817121 0)
(0.999613 0.00537405 0)
(1.00429 -0.00505637 0)
(0.999517 0.00359008 0)
(1.00352 -0.000477308 0)
(1.00287 -0.000727148 0)
(1.00132 0.000334066 0)
(1.00432 -5.78628e-05 0)
(1.00382 -0.00102607 0)
(1.00313 0.000171888 0)
(1.00356 -0.00149163 0)
(1.00367 0.000603057 0)
(1.00351 -0.0011199 0)
(1.00335 0.00137348 0)
(1.00342 -0.000191217 0)
(1.00313 0.00211844 0)
(1.00288 0.00109593 0)
(1.00234 0.00292752 0)
(1.00163 0.00339719 0)
(1.00068 0.00546716 0)
(0.999763 0.00836975 0)
(0.999998 0.00529715 0)
(1.0039 -0.00498304 0)
(0.999902 0.00353711 0)
(1.00353 -0.000486545 0)
(1.00302 -0.000712674 0)
(1.00141 0.000299536 0)
(1.00442 -6.11528e-05 0)
(1.00382 -0.00103326 0)
(1.00316 0.000167302 0)
(1.00357 -0.00147402 0)
(1.00376 0.000556692 0)
(1.00363 -0.00104438 0)
(1.00356 0.0012642 0)
(1.00364 -4.79559e-05 0)
(1.00344 0.00194702 0)
(1.00319 0.00132775 0)
(1.00274 0.00283443 0)
(1.00205 0.00368255 0)
(1.00125 0.00559508 0)
(1.00041 0.00850283 0)
(1.00022 0.00521543 0)
(1.00366 -0.00490214 0)
(1.00014 0.00347164 0)
(1.0035 -0.000486959 0)
(1.00312 -0.000706094 0)
(1.00145 0.000272098 0)
(1.00447 -7.05992e-05 0)
(1.00381 -0.0010316 0)
(1.00317 0.000150597 0)
(1.00356 -0.00144262 0)
(1.00382 0.000490414 0)
(1.00369 -0.000954455 0)
(1.0037 0.00113182 0)
(1.00379 0.000108277 0)
(1.00366 0.00177937 0)
(1.00341 0.0015356 0)
(1.00305 0.00278787 0)
(1.00239 0.00392124 0)
(1.00172 0.00575985 0)
(1.00096 0.00859095 0)
(1.00034 0.00512858 0)
(1.0035 -0.00481308 0)
(1.0003 0.00339438 0)
(1.00345 -0.000478576 0)
(1.00318 -0.000708583 0)
(1.00147 0.000253218 0)
(1.0045 -8.91339e-05 0)
(1.00379 -0.00101922 0)
(1.00318 0.000120108 0)
(1.00355 -0.0013965 0)
(1.00386 0.000405892 0)
(1.00373 -0.000852492 0)
(1.0038 0.000983025 0)
(1.00388 0.000262346 0)
(1.00382 0.00163226 0)
(1.00355 0.00171036 0)
(1.00329 0.00278687 0)
(1.00267 0.00412159 0)
(1.00212 0.00594338 0)
(1.00144 0.00865003 0)
(1.00041 0.00503636 0)
(1.0034 -0.00471528 0)
(1.00042 0.00330529 0)
(1.00337 -0.000460248 0)
(1.00324 -0.000722842 0)
(1.00147 0.00024522 0)
(1.00451 -0.000119774 0)
(1.00378 -0.000994871 0)
(1.00319 7.52326e-05 0)
(1.00354 -0.0013349 0)
(1.0039 0.00030494 0)
(1.00375 -0.000741116 0)
(1.00389 0.00083 0)
(1.00393 0.000399908 0)
(1.00394 0.00151694 0)
(1.00366 0.00185367 0)
(1.00349 0.00282807 0)
(1.00291 0.00429268 0)
(1.00246 0.00613305 0)
(1.00186 0.00869583 0)
(1.00045 0.00493853 0)
(1.00332 -0.00460805 0)
(1.00052 0.00320393 0)
(1.00328 -0.000431416 0)
(1.00328 -0.000748895 0)
(1.00146 0.000249701 0)
(1.00452 -0.000164171 0)
(1.00376 -0.000956657 0)
(1.00321 1.52939e-05 0)
(1.00353 -0.0012598 0)
(1.00394 0.00019103 0)
(1.00377 -0.000625337 0)
(1.00396 0.000686921 0)
(1.00398 0.000510207 0)
(1.00405 0.0014306 0)
(1.00376 0.0019708 0)
(1.00367 0.00290288 0)
(1.00314 0.00444359 0)
(1.00278 0.00632109 0)
(1.00225 0.00874439 0)
(1.00048 0.00483485 0)
(1.00325 -0.0044907 0)
(1.00061 0.0030897 0)
(1.00318 -0.000391115 0)
(1.00333 -0.00078797 0)
(1.00145 0.00026746 0)
(1.00452 -0.000222356 0)
(1.00375 -0.000905853 0)
(1.00322 -5.90989e-05 0)
(1.00353 -0.00117488 0)
(1.00399 7.1768e-05 0)
(1.00379 -0.000515675 0)
(1.00403 0.000562833 0)
(1.00402 0.000590651 0)
(1.00415 0.00136581 0)
(1.00385 0.00206571 0)
(1.00385 0.00299922 0)
(1.00336 0.00458105 0)
(1.00309 0.00649975 0)
(1.00261 0.00880597 0)
(1.0005 0.00472494 0)
(1.00318 -0.00436198 0)
(1.00069 0.00296033 0)
(1.00309 -0.000335937 0)
(1.00337 -0.000845498 0)
(1.00144 0.000301226 0)
(1.00451 -0.000296482 0)
(1.00374 -0.000842905 0)
(1.00324 -0.000145949 0)
(1.00352 -0.00108623 0)
(1.00403 -4.06169e-05 0)
(1.00381 -0.000421252 0)
(1.00411 0.000462678 0)
(1.00406 0.000647939 0)
(1.00426 0.00132184 0)
(1.00395 0.00214684 0)
(1.00402 0.0031107 0)
(1.00359 0.00471371 0)
(1.0034 0.00666409 0)
(1.00295 0.0088832 0)
(1.00051 0.00460876 0)
(1.00312 -0.0042217 0)
(1.00078 0.0028156 0)
(1.00299 -0.000266887 0)
(1.0034 -0.000919458 0)
(1.00144 0.00034901 0)
(1.00451 -0.0003843 0)
(1.00374 -0.000772437 0)
(1.00325 -0.000237776 0)
(1.00353 -0.000999896 0)
(1.00408 -0.000145638 0)
(1.00383 -0.00035126 0)
(1.00418 0.000381068 0)
(1.00411 0.000683383 0)
(1.00436 0.00129222 0)
(1.00406 0.00221908 0)
(1.0042 0.00323296 0)
(1.00383 0.00484955 0)
(1.00372 0.00681242 0)
(1.0033 0.0089721 0)
(1.00051 0.00448636 0)
(1.00307 -0.00406867 0)
(1.00085 0.00265381 0)
(1.0029 -0.000182022 0)
(1.00343 -0.0010105 0)
(1.00144 0.000410033 0)
(1.00449 -0.000483858 0)
(1.00374 -0.000697279 0)
(1.00326 -0.000331683 0)
(1.00353 -0.000921991 0)
(1.00412 -0.000240231 0)
(1.00386 -0.000308179 0)
(1.00424 0.000309205 0)
(1.00417 0.000699763 0)
(1.00446 0.00125983 0)
(1.00419 0.00227751 0)
(1.00439 0.00335428 0)
(1.00408 0.00499023 0)
(1.00404 0.00694595 0)
(1.00364 0.00907098 0)
(1.0005 0.00435604 0)
(1.00303 -0.00389909 0)
(1.00091 0.00246963 0)
(1.00282 -7.79274e-05 0)
(1.00345 -0.00112281 0)
(1.00145 0.000486983 0)
(1.00447 -0.000598407 0)
(1.00375 -0.000617852 0)
(1.00327 -0.000421295 0)
(1.00355 -0.000866908 0)
(1.00416 -0.000308871 0)
(1.0039 -0.000286212 0)
(1.00431 0.000248013 0)
(1.00423 0.000708643 0)
(1.00457 0.00122047 0)
(1.00433 0.00231159 0)
(1.00458 0.00345819 0)
(1.00435 0.00512116 0)
(1.00436 0.00706644 0)
(1.00398 0.00918939 0)
(1.00048 0.00422023 0)
(1.003 -0.00371643 0)
(1.00097 0.00226828 0)
(1.00274 3.68437e-05 0)
(1.00346 -0.00124688 0)
(1.00147 0.000566395 0)
(1.00444 -0.000708415 0)
(1.00377 -0.000558387 0)
(1.00326 -0.000477384 0)
(1.00357 -0.000853158 0)
(1.00419 -0.000344983 0)
(1.00395 -0.000297578 0)
(1.00437 0.000205141 0)
(1.0043 0.000703212 0)
(1.00467 0.00119855 0)
(1.00449 0.00229782 0)
(1.00479 0.00352699 0)
(1.00464 0.00516091 0)
(1.0047 0.00715123 0)
(1.00434 0.00931304 0)
(1.00043 0.0040768 0)
(1.00298 -0.00351601 0)
(1.00101 0.00204636 0)
(1.00268 0.000166086 0)
(1.00345 -0.00138491 0)
(1.0015 0.000649733 0)
(1.00439 -0.000810117 0)
(1.0038 -0.000521803 0)
(1.00324 -0.000499212 0)
(1.0036 -0.000868623 0)
(1.00421 -0.000364598 0)
(1.004 -0.000323548 0)
(1.00442 0.000152057 0)
(1.00438 0.000697956 0)
(1.00478 0.0011829 0)
(1.00467 0.00226524 0)
(1.005 0.00353733 0)
(1.00494 0.00512907 0)
(1.00506 0.00708974 0)
(1.00472 0.00924944 0)
(1.00038 0.00392491 0)
(1.00296 -0.00329497 0)
(1.00104 0.00179989 0)
(1.00262 0.000310276 0)
(1.00343 -0.00153422 0)
(1.00154 0.000732006 0)
(1.00433 -0.000899439 0)
(1.00384 -0.000510397 0)
(1.00321 -0.000494026 0)
(1.00364 -0.000904891 0)
(1.00423 -0.000374863 0)
(1.00405 -0.000348215 0)
(1.00447 7.94727e-05 0)
(1.00447 0.000686648 0)
(1.00488 0.00117065 0)
(1.00486 0.00223982 0)
(1.00522 0.00359165 0)
(1.00525 0.00517766 0)
(1.00543 0.00706446 0)
(1.00515 0.00921572 0)
(1.00031 0.00376901 0)
(1.00295 -0.00306223 0)
(1.00106 0.00154258 0)
(1.00256 0.000456118 0)
(1.00341 -0.00167629 0)
(1.00159 0.000792714 0)
(1.00425 -0.000945669 0)
(1.00389 -0.000545269 0)
(1.00317 -0.000452052 0)
(1.00368 -0.00096698 0)
(1.00424 -0.000380897 0)
(1.00411 -0.000361047 0)
(1.00453 -4.64279e-06 0)
(1.00457 0.000675828 0)
(1.00498 0.00123578 0)
(1.00507 0.00227324 0)
(1.00545 0.00373588 0)
(1.00557 0.00531594 0)
(1.00579 0.00715227 0)
(1.00559 0.00920622 0)
(1.00024 0.00360353 0)
(1.00294 -0.00280867 0)
(1.00108 0.00126627 0)
(1.00251 0.000609237 0)
(1.00338 -0.00181765 0)
(1.00164 0.000831525 0)
(1.00417 -0.000963352 0)
(1.00394 -0.00061128 0)
(1.00313 -0.000392199 0)
(1.00371 -0.00101679 0)
(1.00426 -0.000409185 0)
(1.00416 -0.000329505 0)
(1.00458 -2.29398e-05 0)
(1.00469 0.000747598 0)
(1.00509 0.00139426 0)
(1.00529 0.00238647 0)
(1.0057 0.00386105 0)
(1.00589 0.00548062 0)
(1.00616 0.00725389 0)
(1.00603 0.00919932 0)
(1.00017 0.00343455 0)
(1.00291 -0.00254401 0)
(1.0011 0.0009804 0)
(1.00245 0.000753727 0)
(1.00334 -0.00194463 0)
(1.00169 0.000831407 0)
(1.00408 -0.000943992 0)
(1.00399 -0.000708856 0)
(1.00308 -0.00031971 0)
(1.00374 -0.00104574 0)
(1.00428 -0.000439697 0)
(1.00421 -0.000210235 0)
(1.00464 5.09388e-05 0)
(1.00482 0.000876259 0)
(1.0052 0.00159214 0)
(1.0055 0.00252172 0)
(1.00597 0.00394608 0)
(1.00623 0.00561324 0)
(1.00653 0.00732994 0)
(1.00646 0.00916561 0)
(1.00011 0.00326055 0)
(1.00287 -0.00227077 0)
(1.00113 0.00069743 0)
(1.00238 0.000874498 0)
(1.00331 -0.00203792 0)
(1.00175 0.000789463 0)
(1.00399 -0.000888185 0)
(1.00404 -0.000824312 0)
(1.00305 -0.000244282 0)
(1.00376 -0.00104194 0)
(1.00432 -0.000427084 0)
(1.00427 -3.35057e-05 0)
(1.0047 0.000132177 0)
(1.00495 0.000977871 0)
(1.00532 0.00179302 0)
(1.00572 0.00266465 0)
(1.00624 0.00400704 0)
(1.00658 0.00568617 0)
(1.0069 0.00737222 0)
(1.00688 0.0090999 0)
(1.00006 0.00307965 0)
(1.00281 -0.00198573 0)
(1.00116 0.000418421 0)
(1.00231 0.000967922 0)
(1.00328 -0.0021057 0)
(1.0018 0.000712852 0)
(1.0039 -0.000816965 0)
(1.00409 -0.000935187 0)
(1.00302 -0.000168879 0)
(1.00378 -0.000966807 0)
(1.00437 -0.000389236 0)
(1.00432 0.000147182 0)
(1.00476 0.000227938 0)
(1.0051 0.00104626 0)
(1.00546 0.0019685 0)
(1.00592 0.00281882 0)
(1.00652 0.00404972 0)
(1.00694 0.00569583 0)
(1.00727 0.00735754 0)
(1.00728 0.00899031 0)
(1.00002 0.00290011 0)
(1.00274 -0.00170845 0)
(1.0012 0.000164462 0)
(1.00223 0.00102129 0)
(1.00324 -0.00214634 0)
(1.00185 0.000599591 0)
(1.00381 -0.000719661 0)
(1.00414 -0.00104286 0)
(1.003 -6.5917e-05 0)
(1.00378 -0.000817128 0)
(1.00443 -0.000363048 0)
(1.00438 0.000331259 0)
(1.00482 0.000361696 0)
(1.00525 0.00109061 0)
(1.00561 0.00209993 0)
(1.00612 0.00297443 0)
(1.0068 0.00408514 0)
(1.0073 0.00565228 0)
(1.00764 0.00728464 0)
(1.00767 0.00884076 0)
(0.999992 0.00271718 0)
(1.00265 -0.00143754 0)
(1.00124 -5.86198e-05 0)
(1.00214 0.00104237 0)
(1.00321 -0.00215633 0)
(1.00191 0.00045466 0)
(1.00372 -0.000611662 0)
(1.00418 -0.00111509 0)
(1.00301 7.11903e-05 0)
(1.00377 -0.000613296 0)
(1.0045 -0.000344337 0)
(1.00444 0.000489472 0)
(1.00487 0.000528465 0)
(1.00539 0.0011204 0)
(1.00578 0.0021834 0)
(1.00631 0.00312175 0)
(1.00706 0.00413245 0)
(1.00766 0.0055856 0)
(1.00802 0.00717601 0)
(1.00805 0.0086715 0)
(0.999971 0.00253482 0)
(1.00254 -0.00117713 0)
(1.00128 -0.000249856 0)
(1.00205 0.0010276 0)
(1.00317 -0.00214828 0)
(1.00196 0.00029897 0)
(1.00364 -0.00050533 0)
(1.00422 -0.00113469 0)
(1.00303 0.000214138 0)
(1.00375 -0.000382784 0)
(1.00457 -0.000318403 0)
(1.00451 0.000606488 0)
(1.00491 0.000717289 0)
(1.00554 0.00115708 0)
(1.00596 0.00222152 0)
(1.00651 0.00324207 0)
(1.00732 0.00419291 0)
(1.00801 0.00551462 0)
(1.00841 0.00704066 0)
(1.00842 0.00848363 0)
(0.999956 0.00235667 0)
(1.00243 -0.000939492 0)
(1.00132 -0.000399776 0)
(1.00196 0.000979433 0)
(1.00313 -0.00212702 0)
(1.00202 0.000149961 0)
(1.00357 -0.000365038 0)
(1.00426 -0.00111616 0)
(1.00307 0.000325317 0)
(1.00371 -0.000146142 0)
(1.00463 -0.000282654 0)
(1.00459 0.00068175 0)
(1.00495 0.000914332 0)
(1.00566 0.00122035 0)
(1.00616 0.00222988 0)
(1.00671 0.00332553 0)
(1.00756 0.00426284 0)
(1.00834 0.00545414 0)
(1.00879 0.006888 0)
(1.0088 0.00827637 0)
(0.999945 0.00217707 0)
(1.00231 -0.000719998 0)
(1.00135 -0.000513738 0)
(1.00187 0.000926783 0)
(1.00308 -0.00207865 0)
(1.00209 8.5621e-06 0)
(1.0035 -0.000181143 0)
(1.0043 -0.00106969 0)
(1.00312 0.000390581 0)
(1.00367 8.40165e-05 0)
(1.00468 -0.000235989 0)
(1.00469 0.000717718 0)
(1.005 0.00110188 0)
(1.00578 0.00131576 0)
(1.00637 0.00222468 0)
(1.00693 0.00337111 0)
(1.0078 0.00432927 0)
(1.00866 0.00540735 0)
(1.00917 0.00672602 0)
(1.00917 0.00805033 0)
(0.999938 0.00200396 0)
(1.00218 -0.000527986 0)
(1.00138 -0.000595699 0)
(1.00178 0.000889826 0)
(1.00303 -0.00199799 0)
(1.00217 -0.000114097 0)
(1.00344 5.22048e-06 0)
(1.00433 -0.00100333 0)
(1.00319 0.000409262 0)
(1.00362 0.000314368 0)
(1.00472 -0.000155027 0)
(1.0048 0.000728327 0)
(1.00505 0.00127061 0)
(1.00587 0.00144423 0)
(1.00658 0.00222209 0)
(1.00717 0.00338086 0)
(1.00804 0.00437424 0)
(1.00896 0.00536468 0)
(1.00953 0.0065565 0)
(1.00953 0.00780247 0)
(0.999933 0.00183624 0)
(1.00205 -0.00036776 0)
(1.00141 -0.000648346 0)
(1.00169 0.00086896 0)
(1.00298 -0.00187865 0)
(1.00226 -0.000231969 0)
(1.00338 0.000175862 0)
(1.00435 -0.0009056 0)
(1.00327 0.000397338 0)
(1.00358 0.000540709 0)
(1.00475 -3.84456e-05 0)
(1.00492 0.000718814 0)
(1.00511 0.00141128 0)
(1.00596 0.0016002 0)
(1.00678 0.00223837 0)
(1.00742 0.00336155 0)
(1.00829 0.00438833 0)
(1.00925 0.00531877 0)
(1.00988 0.0063855 0)
(1.00989 0.00753834 0)
(0.99993 0.00167326 0)
(1.00191 -0.000231154 0)
(1.00143 -0.000683605 0)
(1.00161 0.000858499 0)
(1.00291 -0.00172179 0)
(1.00236 -0.000346999 0)
(1.00334 0.000328791 0)
(1.00436 -0.000772726 0)
(1.00337 0.000368332 0)
(1.00354 0.000742252 0)
(1.00475 0.00010918 0)
(1.00505 0.000702935 0)
(1.0052 0.00151508 0)
(1.00604 0.00176882 0)
(1.00696 0.0022791 0)
(1.00768 0.00332027 0)
(1.00854 0.00436265 0)
(1.00952 0.00525629 0)
(1.01021 0.00621006 0)
(1.01024 0.00725987 0)
(0.999929 0.00151362 0)
(1.00178 -0.00011169 0)
(1.00145 -0.000709908 0)
(1.00154 0.000862402 0)
(1.00284 -0.00152793 0)
(1.00247 -0.000439421 0)
(1.00331 0.000464735 0)
(1.00436 -0.000602116 0)
(1.00348 0.000332061 0)
(1.00353 0.000908287 0)
(1.00475 0.000296588 0)
(1.00518 0.00070773 0)
(1.00532 0.00158116 0)
(1.00612 0.00193364 0)
(1.00713 0.00234585 0)
(1.00794 0.00327311 0)
(1.00881 0.00430181 0)
(1.00979 0.00517222 0)
(1.01051 0.00603 0)
(1.01057 0.00697349 0)
(0.999931 0.00136157 0)
(1.00166 -1.15535e-05 0)
(1.00147 -0.000726575 0)
(1.00147 0.00086832 0)
(1.00277 -0.00129893 0)
(1.00258 -0.000497301 0)
(1.00331 0.000581051 0)
(1.00436 -0.000401871 0)
(1.0036 0.000301534 0)
(1.00353 0.00103183 0)
(1.00473 0.00050424 0)
(1.0053 0.000738298 0)
(1.00545 0.0016064 0)
(1.0062 0.00206834 0)
(1.00729 0.00242679 0)
(1.00819 0.00323114 0)
(1.00908 0.00421753 0)
(1.01005 0.00506972 0)
(1.0108 0.00585032 0)
(1.01089 0.00669063 0)
(0.999933 0.00120718 0)
(1.00153 8.65569e-05 0)
(1.00149 -0.000758483 0)
(1.00143 0.000863301 0)
(1.00269 -0.00102756 0)
(1.00269 -0.000492837 0)
(1.00332 0.000690306 0)
(1.00434 -0.000178042 0)
(1.00372 0.000291204 0)
(1.00356 0.0011176 0)
(1.0047 0.00071438 0)
(1.00541 0.000796298 0)
(1.0056 0.0016022 0)
(1.0063 0.00215445 0)
(1.00743 0.00250047 0)
(1.00843 0.00318942 0)
(1.00935 0.00411003 0)
(1.01031 0.00494108 0)
(1.01107 0.00566119 0)
(1.01119 0.00640608 0)
(0.999939 0.00106936 0)
(1.00141 0.000153662 0)
(1.00151 -0.000802366 0)
(1.0014 0.000830119 0)
(1.00261 -0.000712921 0)
(1.0028 -0.000436859 0)
(1.00335 0.000775951 0)
(1.00432 4.28294e-05 0)
(1.00383 0.000298083 0)
(1.00361 0.00116263 0)
(1.00468 0.000915868 0)
(1.0055 0.000882923 0)
(1.00577 0.00159268 0)
(1.00642 0.00220133 0)
(1.00756 0.0025618 0)
(1.00866 0.00315198 0)
(1.00962 0.00398897 0)
(1.01057 0.0047885 0)
(1.01133 0.00545809 0)
(1.01147 0.00611592 0)
(0.999947 0.000916326 0)
(1.00129 0.000181798 0)
(1.00154 -0.000903905 0)
(1.0014 0.000788722 0)
(1.00254 -0.000319617 0)
(1.00291 -0.000305382 0)
(1.0034 0.000864616 0)
(1.0043 0.000279833 0)
(1.00394 0.00035429 0)
(1.00369 0.00119488 0)
(1.00467 0.0011164 0)
(1.00558 0.0010125 0)
(1.00593 0.00160613 0)
(1.00656 0.00223439 0)
(1.0077 0.00261828 0)
(1.00887 0.0031284 0)
(1.00989 0.00387179 0)
(1.01083 0.00462614 0)
(1.01158 0.00525031 0)
(1.01173 0.00582996 0)
(0.999954 0.000805535 0)
(1.00116 0.000151399 0)
(1.00156 -0.000960315 0)
(1.00145 0.000803209 0)
(1.00249 8.0735e-05 0)
(1.003 -0.000146398 0)
(1.00346 0.00093843 0)
(1.00427 0.00052528 0)
(1.00404 0.00045701 0)
(1.00379 0.00121574 0)
(1.00468 0.00128617 0)
(1.00565 0.00116256 0)
(1.0061 0.00163789 0)
(1.00672 0.00225568 0)
(1.00785 0.00266012 0)
(1.00908 0.00310883 0)
(1.01016 0.00375819 0)
(1.01109 0.00445595 0)
(1.01183 0.00503745 0)
(1.01197 0.00554855 0)
(0.999963 0.000750761 0)
(1.00105 0.000201214 0)
(1.0016 -0.000909381 0)
(1.00153 0.000711989 0)
(1.00244 0.000312827 0)
(1.00308 -2.08203e-05 0)
(1.00354 0.000957813 0)
(1.00426 0.0007568 0)
(1.00412 0.000594129 0)
(1.0039 0.00122748 0)
(1.0047 0.00140107 0)
(1.00571 0.00129227 0)
(1.00626 0.00165946 0)
(1.00689 0.00224098 0)
(1.008 0.00265422 0)
(1.00928 0.00305735 0)
(1.01041 0.00362092 0)
(1.01135 0.00425806 0)
(1.01207 0.00480151 0)
(1.0122 0.00525752 0)
(0.999973 0.000498882 0)
(1.00093 0.000541347 0)
(1.00161 -0.000703719 0)
(1.0016 0.000629048 0)
(1.00241 0.000488472 0)
(1.00314 9.47305e-05 0)
(1.00363 0.000917351 0)
(1.00426 0.000918502 0)
(1.00419 0.000721958 0)
(1.00401 0.00122393 0)
(1.00474 0.00146482 0)
(1.00576 0.00140032 0)
(1.00641 0.00168164 0)
(1.00705 0.00220689 0)
(1.00814 0.00261031 0)
(1.00945 0.00297141 0)
(1.01064 0.0034539 0)
(1.0116 0.00402337 0)
(1.01229 0.00452597 0)
(1.01241 0.00493334 0)
(0.999984 0.000485295 0)
(1.00084 0.000483426 0)
(1.00159 -0.000605228 0)
(1.00167 0.00062854 0)
(1.00237 0.000740868 0)
(1.00318 0.000295937 0)
(1.00371 0.00096469 0)
(1.00427 0.00111859 0)
(1.00424 0.000946105 0)
(1.00411 0.00130789 0)
(1.00478 0.00156195 0)
(1.00581 0.00154316 0)
(1.00653 0.00175785 0)
(1.00721 0.00221004 0)
(1.00828 0.00258636 0)
(1.0096 0.00290491 0)
(1.01084 0.00331306 0)
(1.01182 0.00381257 0)
(1.01249 0.0042728 0)
(1.01258 0.0046376 0)
(0.999996 0.000475718 0)
(1.00073 0.000374996 0)
(1.00161 -0.000493814 0)
(1.00178 0.000667618 0)
(1.00237 0.00101591 0)
(1.00322 0.000546369 0)
(1.00382 0.00103258 0)
(1.0043 0.00128463 0)
(1.00428 0.00118014 0)
(1.0042 0.00142576 0)
(1.00484 0.00165214 0)
(1.00586 0.00167122 0)
(1.00665 0.00184372 0)
(1.00736 0.00222443 0)
(1.00842 0.00256185 0)
(1.00975 0.0028348 0)
(1.01104 0.00317234 0)
(1.01205 0.00360052 0)
(1.0127 0.00401618 0)
(1.01276 0.00434353 0)
(1 0.000301058 0)
(1.00066 0.000640645 0)
(1.00161 -0.000255194 0)
(1.00189 0.00064379 0)
(1.00237 0.0011634 0)
(1.00322 0.00074628 0)
(1.0039 0.00104405 0)
(1.00435 0.00136371 0)
(1.00433 0.00134662 0)
(1.00428 0.00152081 0)
(1.0049 0.00169593 0)
(1.00592 0.00172937 0)
(1.00676 0.00186811 0)
(1.00749 0.00218784 0)
(1.00854 0.00247908 0)
(1.00988 0.00270159 0)
(1.01121 0.0029682 0)
(1.01225 0.00332386 0)
(1.01289 0.00369354 0)
(1.01292 0.00399013 0)
(1.00002 0.000284103 0)
(1.00057 0.000761927 0)
(1.00158 -0.000122949 0)
(1.00198 0.000550021 0)
(1.00239 0.00124362 0)
(1.00322 0.000976087 0)
(1.00397 0.00112902 0)
(1.0044 0.00146776 0)
(1.00436 0.00153593 0)
(1.00434 0.00166118 0)
(1.00494 0.00177022 0)
(1.00596 0.00177838 0)
(1.00684 0.00187941 0)
(1.00761 0.00214589 0)
(1.00864 0.00239635 0)
(1.00998 0.00256929 0)
(1.01134 0.00276425 0)
(1.01242 0.00304445 0)
(1.01307 0.00336374 0)
(1.01306 0.00363264 0)
(1.00002 0.000228431 0)
(1.00049 0.000797907 0)
(1.00152 0.000103298 0)
(1.00206 0.000589987 0)
(1.00242 0.00137737 0)
(1.0032 0.00124621 0)
(1.00401 0.00125873 0)
(1.00446 0.00154441 0)
(1.0044 0.00169729 0)
(1.00437 0.00181647 0)
(1.00496 0.00187403 0)
(1.00598 0.00184088 0)
(1.0069 0.00190194 0)
(1.0077 0.00212214 0)
(1.00872 0.00233972 0)
(1.01005 0.00246548 0)
(1.01143 0.00258417 0)
(1.01256 0.00277744 0)
(1.01321 0.00303029 0)
(1.01318 0.00326185 0)
(1.00003 0.000238097 0)
(1.00043 0.00077711 0)
(1.00147 0.000328806 0)
(1.00214 0.000660813 0)
(1.00246 0.00149992 0)
(1.00318 0.00153206 0)
(1.00403 0.00145081 0)
(1.00451 0.00164875 0)
(1.00445 0.00186186 0)
(1.0044 0.00200286 0)
(1.00496 0.00200961 0)
(1.00598 0.00191491 0)
(1.00695 0.00191497 0)
(1.00778 0.00207816 0)
(1.00878 0.0022618 0)
(1.01008 0.0023454 0)
(1.01148 0.00239437 0)
(1.01265 0.00249849 0)
(1.01333 0.00267592 0)
(1.01329 0.00286317 0)
(1.00004 0.000215385 0)
(1.00038 0.00081556 0)
(1.00141 0.000554474 0)
(1.00221 0.000762815 0)
(1.00253 0.00161216 0)
(1.00316 0.00180067 0)
(1.00403 0.00167553 0)
(1.00455 0.00176767 0)
(1.0045 0.00200221 0)
(1.00442 0.00217603 0)
(1.00493 0.00215865 0)
(1.00595 0.00199865 0)
(1.00697 0.00192897 0)
(1.00784 0.00201785 0)
(1.00883 0.00216021 0)
(1.01009 0.00220383 0)
(1.01149 0.00219453 0)
(1.01269 0.00221166 0)
(1.01341 0.00230678 0)
(1.01337 0.0024378 0)
(1.00004 0.000195466 0)
(1.00035 0.000887264 0)
(1.00135 0.000779262 0)
(1.00225 0.000874639 0)
(1.0026 0.00168747 0)
(1.00314 0.00203415 0)
(1.00399 0.00192681 0)
(1.00457 0.00192612 0)
(1.00454 0.00213817 0)
(1.00443 0.00234364 0)
(1.00488 0.0023255 0)
(1.00588 0.00211259 0)
(1.00694 0.00195823 0)
(1.00786 0.00195985 0)
(1.00884 0.00203631 0)
(1.01007 0.00204019 0)
(1.01145 0.00197578 0)
(1.01268 0.00191624 0)
(1.01343 0.00192523 0)
(1.01341 0.00198984 0)
(1.00004 0.000243537 0)
(1.00032 0.000924714 0)
(1.00127 0.000978744 0)
(1.00227 0.00102082 0)
(1.00268 0.00175929 0)
(1.00313 0.00224764 0)
(1.00393 0.00218048 0)
(1.00455 0.00208932 0)
(1.00457 0.00222872 0)
(1.00443 0.0024457 0)
(1.0048 0.00244066 0)
(1.00576 0.00219833 0)
(1.00686 0.00195583 0)
(1.00784 0.00186396 0)
(1.00882 0.00186087 0)
(1.01001 0.00182349 0)
(1.01136 0.00171166 0)
(1.0126 0.00158944 0)
(1.0134 0.00151959 0)
(1.01341 0.00151432 0)
(1.00004 0.000221898 0)
(1.00029 0.00102279 0)
(1.0012 0.00121145 0)
(1.00227 0.00123222 0)
(1.00274 0.00187732 0)
(1.00312 0.00245207 0)
(1.00385 0.00246663 0)
(1.0045 0.00231984 0)
(1.00458 0.00239137 0)
(1.00442 0.00259695 0)
(1.00471 0.00262104 0)
(1.00561 0.00236288 0)
(1.00673 0.00203872 0)
(1.00775 0.00183273 0)
(1.00875 0.00173768 0)
(1.0099 0.00163684 0)
(1.01122 0.00147581 0)
(1.01246 0.00128911 0)
(1.01329 0.00114251 0)
(1.01334 0.00105985 0)
(1.00004 0.000278474 0)
(1.00028 0.000997919 0)
(1.00111 0.00140106 0)
(1.00224 0.00146822 0)
(1.00279 0.00202922 0)
(1.00312 0.00265599 0)
(1.00375 0.00277128 0)
(1.00441 0.00260241 0)
(1.00455 0.00259846 0)
(1.0044 0.00275462 0)
(1.0046 0.00278761 0)
(1.00541 0.00251653 0)
(1.00651 0.00211768 0)
(1.00758 0.00179239 0)
(1.0086 0.00158983 0)
(1.00974 0.00140951 0)
(1.01102 0.00118888 0)
(1.01224 0.000939067 0)
(1.0131 0.000717838 0)
(1.01319 0.000559466 0)
(1.00003 0.000348297 0)
(1.00026 0.000977722 0)
(1.00107 0.00158186 0)
(1.00221 0.00174168 0)
(1.00284 0.00221238 0)
(1.00313 0.00285499 0)
(1.00366 0.0030631 0)
(1.00429 0.00289675 0)
(1.00448 0.00281501 0)
(1.00435 0.00290229 0)
(1.00447 0.00292243 0)
(1.00517 0.00265071 0)
(1.00624 0.00219716 0)
(1.00734 0.00176363 0)
(1.00839 0.00144421 0)
(1.00951 0.00116647 0)
(1.01076 0.000873044 0)
(1.01197 0.000553787 0)
(1.01284 0.000262246 0)
(1.01297 2.85781e-05 0)
(1.00003 0.000364065 0)
(1.00027 0.00110574 0)
(1.00102 0.00179606 0)
(1.00215 0.00201951 0)
(1.00286 0.00241496 0)
(1.00314 0.00304591 0)
(1.00356 0.00335377 0)
(1.00414 0.00323713 0)
(1.00437 0.00310164 0)
(1.00427 0.00312013 0)
(1.00432 0.00310637 0)
(1.0049 0.00283365 0)
(1.00589 0.00233255 0)
(1.007 0.00179417 0)
(1.00807 0.00133733 0)
(1.00919 0.000941273 0)
(1.01041 0.000548163 0)
(1.0116 0.000143025 0)
(1.01248 -0.000231897 0)
(1.01265 -0.000552049 0)
(1.00002 0.000406866 0)
(1.00026 0.00124414 0)
(1.00097 0.00199458 0)
(1.00207 0.0023006 0)
(1.00285 0.00264824 0)
(1.00314 0.00324973 0)
(1.00346 0.00363418 0)
(1.00395 0.00359278 0)
(1.0042 0.00342606 0)
(1.00412 0.003363 0)
(1.00411 0.00330194 0)
(1.00457 0.0030065 0)
(1.00546 0.00246859 0)
(1.00654 0.00182309 0)
(1.00763 0.00122651 0)