/*--------------------------------*- C++ -*----------------------------------*\
| =========                 |                                                 |
| \\      /  F ield         | OpenFOAM: The Open Source CFD Toolbox           |
|  \\    /   O peration     | Version:  v2012                                 |
|   \\  /    A nd           | Website:  www.openfoam.com                      |
|    \\/     M anipulation  |                                                 |
\*---------------------------------------------------------------------------*/
FoamFile
{
    version     2.0;
    format      ascii;
    class       volScalarField;
    location    "4.05";
    object      p;
}
// * * * * * * * * * * * * * * * * * * * * * * * * * * * * * * * * * * * * * //

dimensions      [0 2 -2 0 0 0 0];


internalField   nonuniform List<scalar> 
17600
(
1.10976e-10
9.3696e-05
-0.000829287
-0.000847599
-0.000984068
-0.00151942
-0.00196003
-0.00233196
-0.00286462
-0.00318683
-0.00333057
-0.003447
-0.00355186
-0.00372436
-0.00326383
-0.00295656
-0.00168271
-0.000643732
0.00195511
0.00549994
1.43696e-06
9.37187e-05
-0.000828807
-0.000850394
-0.000982438
-0.00152147
-0.00195934
-0.00233393
-0.00286367
-0.00318975
-0.00332902
-0.00345127
-0.00354933
-0.00373159
-0.00325924
-0.00297245
-0.00167157
-0.000683477
0.00198039
0.00526408
3.84565e-06
9.34361e-05
-0.000828854
-0.000854297
-0.000980686
-0.0015246
-0.00195819
-0.00233686
-0.00286219
-0.00319393
-0.00332683
-0.00345724
-0.00354662
-0.00374232
-0.00325565
-0.00299537
-0.00166142
-0.000739035
0.00199574
0.00486384
7.19017e-06
9.32802e-05
-0.000829959
-0.000858148
-0.000978787
-0.001528
-0.0019571
-0.0023399
-0.00286075
-0.00319839
-0.0033249
-0.00346356
-0.00354506
-0.00375395
-0.00325479
-0.00301824
-0.00165816
-0.000789105
0.00197198
0.00446663
1.19835e-05
9.32497e-05
-0.000832246
-0.000862002
-0.000976795
-0.00153175
-0.00195605
-0.00234308
-0.00285932
-0.00320323
-0.00332295
-0.00347039
-0.00354366
-0.0037667
-0.00325403
-0.00304218
-0.00165773
-0.000837336
0.00190821
0.00409766
1.84274e-05
9.30256e-05
-0.000835735
-0.000866009
-0.000974726
-0.00153589
-0.00195493
-0.00234643
-0.00285776
-0.00320843
-0.00332068
-0.00347769
-0.00354196
-0.0037805
-0.00325305
-0.00306759
-0.0016599
-0.000888259
0.00181012
0.00376377
2.63217e-05
9.23458e-05
-0.000840247
-0.000870224
-0.000972547
-0.00154034
-0.00195362
-0.00234992
-0.00285601
-0.00321391
-0.00331806
-0.00348537
-0.00354015
-0.00379519
-0.00325296
-0.0030935
-0.00166805
-0.000941624
0.00168031
0.00344558
3.52988e-05
9.114e-05
-0.000845461
-0.000874678
-0.000970181
-0.00154502
-0.00195208
-0.00235357
-0.00285411
-0.0032197
-0.00331517
-0.00349349
-0.00353849
-0.00381068
-0.00325471
-0.00311896
-0.00168542
-0.000995435
0.00151905
0.00313794
4.5038e-05
8.94701e-05
-0.000851075
-0.000879409
-0.000967562
-0.0015499
-0.00195032
-0.00235739
-0.00285212
-0.0032258
-0.00331209
-0.00350204
-0.00353725
-0.00382673
-0.00325915
-0.00314334
-0.00171391
-0.00104915
0.00132745
0.00283441
5.53481e-05
8.74397e-05
-0.000856875
-0.000884454
-0.000964659
-0.00155499
-0.00194839
-0.00236144
-0.00285009
-0.00323222
-0.0033089
-0.00351093
-0.00353676
-0.00384292
-0.00326725
-0.00316596
-0.00175485
-0.00110372
0.00110861
0.0025295
6.61537e-05
8.51392e-05
-0.000862734
-0.000889842
-0.000961471
-0.00156029
-0.0019463
-0.00236571
-0.00284807
-0.00323889
-0.00330574
-0.00351997
-0.00353745
-0.0038587
-0.00328003
-0.00318643
-0.00180924
-0.0011609
0.000867401
0.00221834
7.74474e-05
8.26257e-05
-0.00086858
-0.000895597
-0.00095801
-0.00156578
-0.00194409
-0.00237019
-0.00284611
-0.00324571
-0.00330277
-0.00352888
-0.00353988
-0.00387346
-0.00329842
-0.00320475
-0.00187746
-0.00122332
0.000609373
0.00189731
8.92489e-05
7.99276e-05
-0.000874367
-0.000901739
-0.00095429
-0.00157144
-0.00194181
-0.00237485
-0.0028443
-0.00325252
-0.00330024
-0.0035373
-0.00354468
-0.00388674
-0.00332317
-0.00322131
-0.0019593
-0.00129479
0.000340156
0.00156486
0.000101582
7.70573e-05
-0.000880058
-0.000908279
-0.000950329
-0.00157722
-0.00193951
-0.00237961
-0.00284274
-0.00325913
-0.00329847
-0.00354483
-0.00355237
-0.00389834
-0.00335461
-0.00323729
-0.00205394
-0.00137985
6.46112e-05
0.00122115
0.000114463
7.40238e-05
-0.000885614
-0.000915217
-0.000946146
-0.00158308
-0.00193725
-0.00238437
-0.0028416
-0.00326526
-0.00329782
-0.00355113
-0.00356336
-0.00390832
-0.00339266
-0.00325482
-0.0021595
-0.00148077
-0.00021442
0.000867199
0.000127902
7.08432e-05
-0.000891003
-0.000922545
-0.000941774
-0.00158896
-0.00193515
-0.00238897
-0.0028411
-0.00327061
-0.00329865
-0.00355597
-0.0035779
-0.00391701
-0.00343688
-0.00327641
-0.0022738
-0.00159953
-0.000496122
0.00050477
0.000141897
6.75439e-05
-0.000896188
-0.000930244
-0.000937265
-0.00159477
-0.00193335
-0.00239322
-0.00284152
-0.0032749
-0.00330121
-0.00355922
-0.00359608
-0.00392511
-0.00348656
-0.00330451
-0.00239547
-0.00173734
-0.000780542
0.000136128
0.000156434
6.41704e-05
-0.000901135
-0.000938274
-0.000932704
-0.00160037
-0.00193203
-0.00239689
-0.00284305
-0.00327794
-0.00330571
-0.0035609
-0.00361769
-0.00393364
-0.00354102
-0.0033418
-0.00252386
-0.00189373
-0.00106822
-0.000236769
0.000171486
6.07935e-05
-0.000905823
-0.000946579
-0.000928197
-0.00160561
-0.00193141
-0.00239976
-0.0028459
-0.00327952
-0.00331224
-0.00356133
-0.00364211
-0.00394416
-0.00359953
-0.00338972
-0.00265905
-0.00206738
-0.00136004
-0.00061241
0.000187007
5.75138e-05
-0.000910241
-0.000955076
-0.000923891
-0.00161029
-0.00193171
-0.00240161
-0.00285027
-0.00327954
-0.00332066
-0.00356105
-0.00366853
-0.00395831
-0.00366149
-0.00344923
-0.00280214
-0.00225708
-0.00165662
-0.000989592
0.000202929
5.44674e-05
-0.000914397
-0.000963633
-0.000919972
-0.00161422
-0.00193314
-0.00240227
-0.0028562
-0.00327811
-0.00333061
-0.00356069
-0.00369625
-0.00397744
-0.00372683
-0.00352114
-0.00295482
-0.00246191
-0.00195802
-0.00136735
0.000219165
5.18409e-05
-0.000918328
-0.000972109
-0.000916603
-0.00161726
-0.0019359
-0.00240157
-0.00286358
-0.00327562
-0.00334149
-0.00356106
-0.00372466
-0.00400213
-0.00379641
-0.00360598
-0.00311887
-0.00268164
-0.00226404
-0.00174496
0.000235599
4.98769e-05
-0.000922088
-0.000980364
-0.000913943
-0.00161925
-0.00194014
-0.00239954
-0.00287204
-0.00327259
-0.00335261
-0.00356326
-0.00375354
-0.00403246
-0.00387129
-0.00370415
-0.00329621
-0.00291682
-0.00257461
-0.00212185
0.000252048
4.88764e-05
-0.000925722
-0.000988249
-0.000912166
-0.00162006
-0.00194591
-0.00239638
-0.00288109
-0.00326985
-0.00336337
-0.00356739
-0.00378297
-0.00406822
-0.00395208
-0.00381577
-0.00348884
-0.00316918
-0.00289085
-0.00249798
0.000268314
4.92053e-05
-0.000929255
-0.000995661
-0.000911397
-0.00161974
-0.001953
-0.00239261
-0.00289003
-0.00326798
-0.00337322
-0.00357352
-0.0038128
-0.00410965
-0.00403883
-0.00393996
-0.003698
-0.00344238
-0.0032188
-0.00287566
0.000284193
5.13017e-05
-0.000932714
-0.00100257
-0.000911655
-0.0016185
-0.00196098
-0.00238897
-0.00289814
-0.0032673
-0.00338175
-0.00358158
-0.00384293
-0.00415673
-0.00413112
-0.00407133
-0.00391638
-0.00373856
-0.0035781
-0.00326333
0.000299361
5.56437e-05
-0.000936052
-0.00100901
-0.000912848
-0.00161671
-0.00196926
-0.00238613
-0.00290491
-0.00326803
-0.00338919
-0.00359101
-0.00387381
-0.00420757
-0.00422922
-0.00420836
-0.00414111
-0.0040453
-0.00394516
-0.00369782
0.000313466
6.26794e-05
-0.000939173
-0.00101508
-0.00091473
-0.00161505
-0.00197709
-0.00238452
-0.00290974
-0.00326999
-0.00339625
-0.0036009
-0.00390616
-0.00426166
-0.00433572
-0.00436624
-0.00438178
-0.00436532
-0.00432645
-0.00413398
0.000326151
7.29323e-05
-0.000945254
-0.00102113
-0.000916788
-0.00161432
-0.00198402
-0.00238439
-0.00291332
-0.00327225
-0.00340306
-0.00360969
-0.00394324
-0.00433189
-0.00445783
-0.0045356
-0.00462986
-0.00469631
-0.00471918
-0.00456684
0.000336999
8.70021e-05
-0.000947144
-0.00102775
-0.000918248
-0.00161531
-0.00198983
-0.00238579
-0.00291657
-0.00327357
-0.00341368
-0.00362629
-0.00398957
-0.0044125
-0.00458977
-0.0047116
-0.00488015
-0.00503395
-0.00511979
-0.0049983
0.000345701
0.000105265
-0.000947174
-0.00103553
-0.000918375
-0.00161845
-0.00199482
-0.00238755
-0.00292081
-0.00327583
-0.0034318
-0.00365578
-0.00403963
-0.00449741
-0.00473024
-0.00489593
-0.00513202
-0.00537417
-0.00552607
-0.00543005
0.000351995
0.000127838
-0.000944439
-0.00104522
-0.000916691
-0.00162391
-0.00200037
-0.00238888
-0.00292908
-0.00328408
-0.00345524
-0.00369145
-0.00409219
-0.00458437
-0.0048789
-0.00509203
-0.00538728
-0.00571304
-0.00593341
-0.00586184
0.000355625
0.000154581
-0.000937442
-0.0010574
-0.000913159
-0.00163138
-0.00200834
-0.00238986
-0.00294394
-0.00329833
-0.00347951
-0.00373178
-0.00414827
-0.00467236
-0.00503381
-0.00530124
-0.00564878
-0.00604876
-0.00633595
-0.00629096
0.000356481
0.000184991
-0.000924518
-0.00107226
-0.000908224
-0.00164015
-0.00202097
-0.00239282
-0.00296599
-0.00331665
-0.00350228
-0.00377566
-0.00421011
-0.0047623
-0.00519211
-0.00552195
-0.00591919
-0.00638144
-0.0067294
-0.00671368
0.000354533
0.000218167
-0.00090409
-0.00108927
-0.000902947
-0.00165002
-0.00204009
-0.00240193
-0.00299323
-0.00333841
-0.00352185
-0.00382143
-0.00427976
-0.00485628
-0.00535105
-0.00575071
-0.00619956
-0.00671218
-0.00711183
-0.00712606
0.000349928
0.000252836
-0.000874894
-0.00110732
-0.000898716
-0.00166137
-0.00207261
-0.002415
-0.00302109
-0.0033643
-0.00353902
-0.00386752
-0.00435824
-0.00495632
-0.00550854
-0.0059831
-0.00648867
-0.00704365
-0.00748428
-0.00752548
0.000343157
0.000287779
-0.000836188
-0.00112559
-0.000897158
-0.00167475
-0.00211714
-0.00243075
-0.00304774
-0.00339622
-0.00355648
-0.00391246
-0.00444512
-0.00506438
-0.00566409
-0.00621469
-0.00678385
-0.00737877
-0.00784983
-0.00791088
0.000334825
0.000321943
-0.000788483
-0.00114347
-0.000899951
-0.00168976
-0.00216935
-0.00244955
-0.00307206
-0.00343497
-0.00357701
-0.00395426
-0.00453794
-0.00518287
-0.00581957
-0.00644163
-0.00708095
-0.00771853
-0.00821173
-0.00828267
0.000325659
0.000354347
-0.000733365
-0.00116017
-0.000908168
-0.00170519
-0.0022292
-0.00247312
-0.00309277
-0.0034799
-0.00360347
-0.00399175
-0.00463302
-0.00531362
-0.00597874
-0.0066613
-0.00737414
-0.00806073
-0.0085722
-0.00864285
0.000316557
0.000384153
-0.00067302
-0.00117506
-0.00092203
-0.00172028
-0.00229833
-0.00250319
-0.00310882
-0.00352931
-0.00363908
-0.00402584
-0.00472616
-0.00545593
-0.00614618
-0.00687442
-0.00765769
-0.00840021
-0.00893139
-0.00899423
0.000308392
0.000410585
-0.000609477
-0.00118774
-0.000941975
-0.0017346
-0.00237017
-0.00254132
-0.0031199
-0.0035807
-0.00368645
-0.00405924
-0.00481337
-0.00560623
-0.00632525
-0.00708523
-0.00792831
-0.00873052
-0.00928697
-0.00933911
0.000301908
0.000433312
-0.000544747
-0.00119863
-0.000968732
-0.0017479
-0.00244427
-0.00258878
-0.00312673
-0.00363086
-0.00374649
-0.00409567
-0.00489207
-0.00575903
-0.00651633
-0.00729772
-0.00818558
-0.00904589
-0.00963485
-0.00967863
0.000297632
0.000452639
-0.000480864
-0.00120965
-0.00100398
-0.00175958
-0.00251734
-0.00264613
-0.00313101
-0.00367669
-0.00381859
-0.00413953
-0.00496173
-0.0059079
-0.00671656
-0.007515
-0.00843146
-0.00934261
-0.00997011
-0.0100121
0.000296338
0.000469091
-0.000418452
-0.00122349
-0.00105139
-0.00176806
-0.00258849
-0.00271313
-0.00313532
-0.00371549
-0.00390072
-0.00419525
-0.00502411
-0.00604687
-0.00692085
-0.00773896
-0.00866964
-0.00961957
-0.0102878
-0.0103365
0.000298711
0.000484192
-0.00035932
-0.00124408
-0.00111325
-0.00177233
-0.00264536
-0.00278878
-0.00314269
-0.00374476
-0.0039889
-0.00426594
-0.00508299
-0.00617186
-0.00712301
-0.00796953
-0.00890436
-0.00987803
-0.0105838
-0.0106469
0.000305141
0.000498949
-0.000305452
-0.00127462
-0.00119029
-0.00177418
-0.002689
-0.00287116
-0.00315646
-0.00376293
-0.00407716
-0.00435195
-0.00514316
-0.00628099
-0.00731608
-0.00820351
-0.00913863
-0.0101207
-0.0108557
-0.0109379
0.000315478
0.000510592
-0.000259524
-0.00130651
-0.00127958
-0.0017792
-0.00271973
-0.0029579
-0.00318055
-0.00377172
-0.00415965
-0.0044512
-0.00520986
-0.00637565
-0.00749365
-0.00843506
-0.00937344
-0.0103514
-0.0111037
-0.0112052
0.000325334
0.000514861
-0.000216139
-0.00133227
-0.00137915
-0.00179396
-0.00273946
-0.0030463
-0.00321841
-0.0037745
-0.0042312
-0.00455891
-0.00528689
-0.00645971
-0.007651
-0.00865679
-0.00960718
-0.0105739
-0.0113306
-0.0114474
0.000333948
0.000509215
-0.000173986
-0.00135297
-0.00148732
-0.00182132
-0.00274885
-0.00313219
-0.00327106
-0.00377523
-0.00428704
-0.00466823
-0.00537535
-0.00653811
-0.00778641
-0.00886087
-0.00983459
-0.0107895
-0.0115396
-0.0116646
0.00034632
0.000502445
-0.000152222
-0.00136919
-0.00159942
-0.00186163
-0.00274956
-0.0032112
-0.00333779
-0.00377891
-0.00432548
-0.00477147
-0.00547337
-0.00661565
-0.0079012
-0.00904126
-0.0100483
-0.0109959
-0.0117327
-0.0118582
0.000358239
0.000483512
-0.000137741
-0.00137978
-0.00171442
-0.00191816
-0.00274581
-0.00327973
-0.00341575
-0.00378934
-0.00434757
-0.00486079
-0.00557442
-0.00669387
-0.00799822
-0.00919496
-0.0102417
-0.0111896
-0.0119113
-0.0120309
0.000363394
0.000457254
-0.000128406
-0.00138442
-0.00183048
-0.00199286
-0.00274126
-0.00333448
-0.00350094
-0.00381109
-0.00435775
-0.00493106
-0.00567097
-0.00677193
-0.00808101
-0.00932239
-0.01041
-0.0113654
-0.0120736
-0.0121833
0.000362535
0.000422386
-0.000126905
-0.00137659
-0.0019446
-0.00208547
-0.00274047
-0.00337359
-0.00358806
-0.00384713
-0.00436105
-0.00497812
-0.00575387
-0.00684522
-0.00815103
-0.0094249
-0.0105501
-0.0115177
-0.0122155
-0.0123141
0.000358086
0.000381617
-0.000141896
-0.00137731
-0.00205451
-0.00219536
-0.00274806
-0.00339515
-0.00366866
-0.0038957
-0.00436208
-0.00500018
-0.00581392
-0.00690649
-0.00820734
-0.0095032
-0.0106603
-0.0116422
-0.0123329
-0.0124207
0.000349178
0.000334164
-0.00017639
-0.00138167
-0.0021568
-0.00231887
-0.00276762
-0.00340095
-0.00373555
-0.00395283
-0.00436646
-0.00500063
-0.00584465
-0.00694728
-0.00824561
-0.00955551
-0.0107384
-0.0117341
-0.0124209
-0.0124996
0.000331511
0.000273668
-0.000226358
-0.00139044
-0.00224985
-0.00245301
-0.00280422
-0.0033964
-0.00378369
-0.00401127
-0.00437621
-0.00498453
-0.00584253
-0.00695816
-0.0082582
-0.00957838
-0.0107816
-0.0117894
-0.0124754
-0.0125471
0.000304246
0.000206006
-0.000292618
-0.00140767
-0.00233433
-0.00259401
-0.00286069
-0.00338741
-0.00380955
-0.00406135
-0.0043886
-0.0049561
-0.00580773
-0.0069313
-0.00823605
-0.00956567
-0.0107855
-0.0118047
-0.0124915
-0.0125594
0.000261762
0.000133228
-0.000374902
-0.001437
-0.00241154
-0.00273731
-0.00293711
-0.00338032
-0.0038132
-0.00409437
-0.00439773
-0.0049174
-0.00574204
-0.0068606
-0.00816884
-0.00950822
-0.010743
-0.011775
-0.0124652
-0.0125327
0.000203103
3.74853e-05
-0.00047023
-0.00148151
-0.00248364
-0.00287875
-0.00303161
-0.00338082
-0.00379808
-0.00410428
-0.00439564
-0.0048671
-0.00564704
-0.00674232
-0.00804659
-0.00939553
-0.0106467
-0.0116933
-0.0123899
-0.01246
0.000130514
-5.70488e-05
-0.000592314
-0.00154687
-0.0025533
-0.00301511
-0.00314158
-0.00339381
-0.00376902
-0.00408752
-0.00437308
-0.00479897
-0.00552081
-0.00657336
-0.00786066
-0.00921574
-0.0104847
-0.0115491
-0.0122576
-0.0123349
3.74096e-05
-0.00017414
-0.000728803
-0.00163406
-0.00262493
-0.00314481
-0.00326395
-0.00342253
-0.00373102
-0.00404196
-0.00432126
-0.0047047
-0.00535881
-0.00635003
-0.00760323
-0.00895565
-0.0102419
-0.0113272
-0.0120557
-0.0121495
-8.25815e-05
-0.000306536
-0.000880289
-0.00174399
-0.00270434
-0.00326831
-0.003395
-0.00346883
-0.00368998
-0.00396867
-0.00423381
-0.0045752
-0.00515443
-0.00606582
-0.00726327
-0.00859681
-0.00989628
-0.0110083
-0.0117571
-0.0118721
-0.000230409
-0.000462487
-0.00104568
-0.00187863
-0.00279754
-0.00338859
-0.00353174
-0.00353487
-0.0036538
-0.00387245
-0.00410716
-0.00440056
-0.0048968
-0.00570944
-0.00682442
-0.00811437
-0.0094104
-0.0105472
-0.0113309
-0.011486
-0.000404896
-0.000634639
-0.00123471
-0.00203944
-0.00290898
-0.00351057
-0.00367235
-0.00362161
-0.00363445
-0.00376463
-0.00394316
-0.00417365
-0.00457343
-0.00526455
-0.00626365
-0.00747625
-0.00874784
-0.00990396
-0.0107377
-0.0109589
-0.000608745
-0.000831111
-0.00144303
-0.00222473
-0.0030409
-0.00363935
-0.00381642
-0.00372584
-0.00364365
-0.00366741
-0.00375549
-0.00389363
-0.00417097
-0.00470894
-0.0055525
-0.00664492
-0.00785939
-0.00902563
-0.00992348
-0.0102454
-0.000868428
-0.00105511
-0.0016563
-0.00240741
-0.00319287
-0.00377988
-0.00396439
-0.00384352
-0.00368068
-0.00360308
-0.00356968
-0.00356904
-0.0036748
-0.00400405
-0.00463795
-0.00555199
-0.00665988
-0.00781533
-0.00879691
-0.00927618
-0.00118924
-0.00141587
-0.00187185
-0.0025789
-0.00336719
-0.0039297
-0.00410984
-0.00397045
-0.00374375
-0.00358054
-0.00343912
-0.00324835
-0.0030963
-0.00310948
-0.00340431
-0.0040347
-0.00495166
-0.0060474
-0.00714719
-0.00789901
-0.00148261
-0.00165247
-0.00221607
-0.00291658
-0.00359576
-0.00408586
-0.00424741
-0.00410512
-0.00382912
-0.00359808
-0.00341349
-0.00311225
-0.00261141
-0.00204913
-0.00169267
-0.00173494
-0.00221335
-0.00302735
-0.00401741
-0.0049729
-0.00183444
-0.00200443
-0.00258239
-0.0032627
-0.00384868
-0.00424363
-0.00437243
-0.00425143
-0.00395547
-0.00360813
-0.00337545
-0.00327695
-0.0027785
-0.00166013
-0.000556873
8.654e-05
0.00030738
0.000404971
0.000590592
0.000815618
-0.00229611
-0.002445
-0.00296497
-0.00359909
-0.0040897
-0.00438852
-0.00447289
-0.00436752
-0.00414892
-0.00361326
-0.00257574
-0.00148197
-0.000529497
0.000254072
0.000908271
0.00153534
0.00221584
0.00292764
0.0035374
0.00371196
-0.00282746
-0.00293879
-0.00339584
-0.00393351
-0.00430231
-0.00448349
-0.00452705
-0.00415045
-0.00324236
-0.00225956
-0.00142393
-0.000742427
-0.000132691
0.000555446
0.00141481
0.00240561
0.00343808
0.00438264
0.00503775
0.00508022
-0.00347288
-0.00350913
-0.00382774
-0.00421803
-0.00446547
-0.00427508
-0.00377203
-0.00315541
-0.00251717
-0.0019042
-0.00131297
-0.000665293
0.000117749
0.00108768
0.00220372
0.00339116
0.00455599
0.00556556
0.0062016
0.0061354
-0.00428782
-0.00435767
-0.00421349
-0.00405233
-0.00386836
-0.00358946
-0.00323674
-0.00284654
-0.00238009
-0.00180066
-0.00110275
-0.000277485
0.000687369
0.00177832
0.00297608
0.00422688
0.00543172
0.00643764
0.00702674
0.0068793
-0.00500176
-0.00495219
-0.00449005
-0.00395146
-0.00352005
-0.00320959
-0.00293276
-0.00260496
-0.00214736
-0.00152319
-0.000740852
0.000177592
0.00121768
0.00236736
0.00360248
0.00486791
0.00606661
0.00705034
0.00759946
0.00739288
-0.00554956
-0.00538317
-0.00477602
-0.0040284
-0.00339784
-0.00295644
-0.00262327
-0.00227101
-0.0018005
-0.00116626
-0.000365905
0.000583653
0.00166041
0.00284243
0.00409772
0.0053686
0.00655915
0.00752188
0.00803657
0.00778221
-0.00600767
-0.00576297
-0.00504783
-0.00414478
-0.00333765
-0.00274493
-0.00231503
-0.00192137
-0.00144935
-0.000827341
-3.10889e-05
0.000927453
0.00202406
0.00322845
0.0044987
0.00577236
0.00695319
0.00789477
0.00837819
0.00808415
-0.00639861
-0.00609781
-0.0052723
-0.00424532
-0.00329861
-0.00257631
-0.00205586
-0.00161919
-0.00113981
-0.000526132
0.000261374
0.00122184
0.0023301
0.00354822
0.00482718
0.00610023
0.00727016
0.00819177
0.00864815
0.00832213
-0.00671041
-0.00635719
-0.00546237
-0.00433765
-0.00328109
-0.00245575
-0.0018576
-0.00137659
-0.000879558
-0.000267033
0.000512482
0.00146774
0.00257727
0.00380159
0.0050844
0.00635513
0.00751526
0.00842043
0.00885562
0.00850576
-0.00694297
-0.00655943
-0.00561136
-0.00442007
-0.00328877
-0.00239033
-0.00172958
-0.00120221
-0.000676021
-4.72261e-05
0.000738752
0.00169462
0.0028019
0.00402137
0.00530018
0.00656467
0.0077146
0.00860608
0.00902533
0.00865827
-0.00708759
-0.00669445
-0.0057227
-0.00449856
-0.00332924
-0.00239126
-0.00169218
-0.00113048
-0.000577408
7.15109e-05
0.00087626
0.00185016
0.00297213
0.00420023
0.00547795
0.00673482
0.00787408
0.00875529
0.00916671
0.00879429
0.010988
0.00569203
-0.00212681
-0.0076125
-0.00889473
-0.00774334
-0.00629188
-0.00530957
-0.00479092
-0.00456573
-0.00451078
-0.0045614
-0.00467992
-0.00483801
-0.00501429
-0.00519537
-0.00537423
-0.00554784
-0.00571513
-0.00587505
-0.00602556
-0.0061657
-0.00629724
-0.00642389
-0.0065486
-0.0066725
-0.00679552
-0.00691759
-0.00703911
-0.007161
-0.00728404
-0.00740823
-0.00753294
-0.0076574
-0.00778112
-0.00790392
-0.00802552
-0.00814557
-0.00826363
-0.0083794
-0.00849285
-0.00860407
-0.00871334
-0.00882102
-0.0089273
-0.00903202
-0.00913517
-0.00923704
-0.00933831
-0.00943932
-0.00953999
-0.00963994
-0.00973911
-0.00983776
-0.00993631
-0.0100348
-0.010133
-0.0102306
-0.0103279
-0.0104252
-0.0105224
-0.0106195
-0.0107163
-0.0108127
-0.0109091
-0.0110058
-0.0111024
-0.0111989
-0.0112952
-0.0113915
-0.011488
-0.0115849
-0.011682
-0.0117791
-0.0118761
-0.0119734
-0.0120707
-0.0121682
-0.0122658
-0.0123634
-0.0124611
-0.012559
-0.0126569
-0.012755
-0.0128533
-0.012952
-0.0130512
-0.0131507
-0.0132507
-0.013351
-0.013452
-0.0135535
-0.0136558
-0.0137584
-0.0138616
-0.0139654
-0.0140697
-0.0141743
-0.0142795
-0.0143853
-0.0144915
-0.0145981
-0.014705
-0.0148126
-0.0149207
-0.0150294
-0.0151383
-0.0152479
-0.0153578
-0.0154683
-0.0155793
-0.0156907
-0.0158027
-0.0159151
-0.0160281
-0.0161416
-0.0162558
-0.0163705
-0.0164861
-0.016602
-0.0167189
-0.0168362
-0.0169545
-0.0170733
-0.0171928
-0.0173128
-0.0174334
-0.0175547
-0.0176765
-0.0177993
-0.0179222
-0.0180462
-0.0181704
-0.0182958
-0.0184216
-0.0185483
-0.0186754
-0.0188031
-0.0189317
-0.0190607
-0.019191
-0.0193212
-0.0194528
-0.0195845
-0.0197178
-0.0198512
-0.0199857
-0.0201207
-0.0202562
-0.0203932
-0.0205301
-0.0206685
-0.0208066
-0.0209469
-0.0210873
-0.0212291
-0.0213711
-0.021514
-0.0216586
-0.0218028
-0.021949
-0.0220944
-0.0222427
-0.0223903
-0.0225397
-0.0226895
-0.0228399
-0.0229926
-0.023144
-0.0232986
-0.0234516
-0.023608
-0.023764
-0.0239212
-0.0240802
-0.0242384
-0.0244004
-0.0245598
-0.0247233
-0.0248856
-0.0250497
-0.0252156
-0.0253797
-0.0255492
-0.0257146
-0.025886
-0.0260542
-0.0262252
-0.0263981
-0.0265681
-0.0267442
-0.0269155
-0.0270908
-0.0272658
-0.0274369
-0.0276148
-0.0277814
-0.0279574
-0.0281066
-0.0282566
0.0100999
0.00549559
-0.00205123
-0.00748051
-0.00881473
-0.00770492
-0.00626772
-0.00529236
-0.00477838
-0.00455609
-0.00450291
-0.00455468
-0.00467403
-0.00483278
-0.0050096
-0.00519114
-0.00537041
-0.00554437
-0.00571196
-0.00587216
-0.00602293
-0.00616328
-0.00629502
-0.00642184
-0.0065467
-0.00667073
-0.00679387
-0.00691604
-0.00703764
-0.00715962
-0.00728273
-0.00740698
-0.00753175
-0.00765627
-0.00778004
-0.00790289
-0.00802454
-0.00814463
-0.00826273
-0.00837853
-0.00849202
-0.00860327
-0.00871257
-0.00882028
-0.00892659
-0.00903134
-0.00913451
-0.00923641
-0.0093377
-0.00943873
-0.00953942
-0.00963939
-0.00973859
-0.00983725
-0.00993581
-0.0100343
-0.0101325
-0.0102302
-0.0103275
-0.0104247
-0.010522
-0.0106191
-0.0107159
-0.0108124
-0.0109088
-0.0110054
-0.0111021
-0.0111986
-0.0112949
-0.0113912
-0.0114877
-0.0115847
-0.0116817
-0.0117788
-0.0118759
-0.0119731
-0.0120705
-0.012168
-0.0122655
-0.0123632
-0.0124609
-0.0125587
-0.0126567
-0.0127548
-0.0128531
-0.0129518
-0.013051
-0.0131505
-0.0132505
-0.0133508
-0.0134518
-0.0135534
-0.0136556
-0.0137582
-0.0138615
-0.0139652
-0.0140695
-0.0141742
-0.0142794
-0.0143851
-0.0144913
-0.014598
-0.0147049
-0.0148125
-0.0149205
-0.0150292
-0.0151382
-0.0152478
-0.0153577
-0.0154682
-0.0155791
-0.0156906
-0.0158026
-0.015915
-0.016028
-0.0161415
-0.0162557
-0.0163704
-0.016486
-0.0166019
-0.0167188
-0.0168361
-0.0169545
-0.0170732
-0.0171927
-0.0173127
-0.0174333
-0.0175546
-0.0176764
-0.0177992
-0.0179221
-0.0180461
-0.0181703
-0.0182958
-0.0184215
-0.0185482
-0.0186753
-0.018803
-0.0189317
-0.0190606
-0.0191909
-0.0193211
-0.0194528
-0.0195844
-0.0197177
-0.0198511
-0.0199856
-0.0201206
-0.0202562
-0.0203931
-0.02053
-0.0206685
-0.0208066
-0.0209469
-0.0210873
-0.0212291
-0.0213711
-0.0215139
-0.0216585
-0.0218027
-0.021949
-0.0220944
-0.0222426
-0.0223903
-0.0225397
-0.0226895
-0.0228399
-0.0229926
-0.023144
-0.0232986
-0.0234516
-0.023608
-0.0237639
-0.0239211
-0.0240802
-0.0242384
-0.0244004
-0.0245598
-0.0247233
-0.0248855
-0.0250497
-0.0252156
-0.0253796
-0.0255492
-0.0257145
-0.0258859
-0.0260542
-0.0262251
-0.0263981
-0.0265681
-0.0267442
-0.0269154
-0.0270908
-0.0272658
-0.0274369
-0.0276148
-0.0277814
-0.0279573
-0.0281066
-0.0282565
0.00919579
0.00530925
-0.00187589
-0.00722843
-0.0086689
-0.00764648
-0.00623666
-0.00526888
-0.00475997
-0.00454197
-0.004492
-0.00454601
-0.0046669
-0.00482671
-0.0050043
-0.00518645
-0.0053662
-0.00554057
-0.00570852
-0.00586902
-0.00602007
-0.00616068
-0.00629264
-0.00641967
-0.0065447
-0.00666889
-0.00679216
-0.00691445
-0.00703615
-0.00715822
-0.00728141
-0.00740574
-0.00753057
-0.00765515
-0.00777898
-0.00790187
-0.00802357
-0.0081437
-0.00826184
-0.00837768
-0.00849121
-0.0086025
-0.00871182
-0.00881956
-0.0089259
-0.00903067
-0.00913387
-0.00923579
-0.0093371
-0.00943816
-0.00953887
-0.00963885
-0.00973807
-0.00983676
-0.00993533
-0.0100338
-0.010132
-0.0102297
-0.0103271
-0.0104243
-0.0105216
-0.0106188
-0.0107155
-0.010812
-0.0109084
-0.0110051
-0.0111017
-0.0111983
-0.0112946
-0.0113909
-0.0114874
-0.0115844
-0.0116814
-0.0117786
-0.0118756
-0.0119729
-0.0120702
-0.0121678
-0.0122653
-0.012363
-0.0124607
-0.0125585
-0.0126565
-0.0127545
-0.0128529
-0.0129516
-0.0130509
-0.0131504
-0.0132503
-0.0133506
-0.0134516
-0.0135532
-0.0136554
-0.0137581
-0.0138613
-0.0139651
-0.0140694
-0.014174
-0.0142792
-0.014385
-0.0144912
-0.0145979
-0.0147048
-0.0148124
-0.0149204
-0.0150291
-0.0151381
-0.0152477
-0.0153576
-0.0154681
-0.015579
-0.0156905
-0.0158025
-0.0159149
-0.0160279
-0.0161414
-0.0162556
-0.0163703
-0.0164859
-0.0166018
-0.0167188
-0.0168361
-0.0169544
-0.0170731
-0.0171926
-0.0173126
-0.0174332
-0.0175546
-0.0176764
-0.0177992
-0.017922
-0.0180461
-0.0181703
-0.0182957
-0.0184214
-0.0185481
-0.0186752
-0.018803
-0.0189316
-0.0190606
-0.0191909
-0.019321
-0.0194527
-0.0195844
-0.0197177
-0.0198511
-0.0199855
-0.0201206
-0.0202561
-0.0203931
-0.02053
-0.0206684
-0.0208065
-0.0209468
-0.0210872
-0.021229
-0.021371
-0.0215139
-0.0216585
-0.0218027
-0.0219489
-0.0220944
-0.0222426
-0.0223902
-0.0225396
-0.0226895
-0.0228398
-0.0229925
-0.023144
-0.0232985
-0.0234515
-0.023608
-0.0237639
-0.0239211
-0.0240801
-0.0242383
-0.0244004
-0.0245598
-0.0247233
-0.0248855
-0.0250497
-0.0252156
-0.0253796
-0.0255491
-0.0257145
-0.0258859
-0.0260541
-0.0262251
-0.026398
-0.0265681
-0.0267442
-0.0269154
-0.0270908
-0.0272657
-0.0274368
-0.0276148
-0.0277814
-0.0279573
-0.0281066
-0.0282565
0.00835265
0.00514545
-0.00162971
-0.00689461
-0.00846668
-0.00756384
-0.00619297
-0.00523414
-0.00473176
-0.00452053
-0.0044761
-0.00453404
-0.0046575
-0.00481896
-0.00499764
-0.00518058
-0.00536097
-0.00553587
-0.00570425
-0.00586511
-0.00601647
-0.00615739
-0.00628967
-0.006417
-0.00654229
-0.00666669
-0.00679015
-0.0069126
-0.00703446
-0.00715666
-0.00727996
-0.00740438
-0.00752929
-0.00765395
-0.00777784
-0.00790079
-0.00802255
-0.00814273
-0.00826091
-0.00837679
-0.00849036
-0.00860169
-0.00871105
-0.00881881
-0.00892518
-0.00902998
-0.0091332
-0.00923515
-0.00933649
-0.00943757
-0.0095383
-0.0096383
-0.00973754
-0.00983624
-0.00993484
-0.0100334
-0.0101316
-0.0102293
-0.0103266
-0.0104239
-0.0105212
-0.0106184
-0.0107151
-0.0108116
-0.0109081
-0.0110047
-0.0111014
-0.011198
-0.0112943
-0.0113906
-0.0114871
-0.0115841
-0.0116812
-0.0117783
-0.0118754
-0.0119726
-0.01207
-0.0121675
-0.0122651
-0.0123627
-0.0124605
-0.0125583
-0.0126563
-0.0127543
-0.0128527
-0.0129514
-0.0130507
-0.0131502
-0.0132501
-0.0133504
-0.0134515
-0.013553
-0.0136553
-0.0137579
-0.0138612
-0.0139649
-0.0140692
-0.0141739
-0.0142791
-0.0143849
-0.0144911
-0.0145977
-0.0147046
-0.0148123
-0.0149203
-0.015029
-0.015138
-0.0152475
-0.0153575
-0.015468
-0.0155789
-0.0156904
-0.0158024
-0.0159148
-0.0160278
-0.0161413
-0.0162555
-0.0163702
-0.0164858
-0.0166017
-0.0167187
-0.016836
-0.0169543
-0.017073
-0.0171925
-0.0173126
-0.0174331
-0.0175545
-0.0176763
-0.0177991
-0.017922
-0.018046
-0.0181702
-0.0182956
-0.0184214
-0.0185481
-0.0186752
-0.0188029
-0.0189315
-0.0190605
-0.0191908
-0.019321
-0.0194527
-0.0195843
-0.0197176
-0.019851
-0.0199855
-0.0201205
-0.0202561
-0.020393
-0.0205299
-0.0206684
-0.0208065
-0.0209468
-0.0210872
-0.021229
-0.021371
-0.0215138
-0.0216585
-0.0218026
-0.0219489
-0.0220943
-0.0222426
-0.0223902
-0.0225396
-0.0226894
-0.0228398
-0.0229925
-0.0231439
-0.0232985
-0.0234515
-0.0236079
-0.0237639
-0.0239211
-0.0240801
-0.0242383
-0.0244003
-0.0245597
-0.0247232
-0.0248855
-0.0250496
-0.0252156
-0.0253796
-0.0255491
-0.0257145
-0.0258859
-0.0260541
-0.0262251
-0.026398
-0.026568
-0.0267442
-0.0269154
-0.0270908
-0.0272657
-0.0274368
-0.0276148
-0.0277813
-0.0279573
-0.0281065
-0.0282565
0.00755114
0.00496267
-0.00136718
-0.00653261
-0.00824083
-0.0074706
-0.00614328
-0.00519137
-0.00469453
-0.00449123
-0.00445415
-0.00451755
-0.00464467
-0.00480848
-0.00498869
-0.00517272
-0.00535398
-0.00552959
-0.00569851
-0.00585977
-0.00601149
-0.00615281
-0.00628553
-0.0064133
-0.00653898
-0.0066637
-0.00678743
-0.00691014
-0.00703222
-0.00715464
-0.00727812
-0.00740268
-0.00752771
-0.00765248
-0.00777647
-0.0078995
-0.00802132
-0.00814157
-0.00825981
-0.00837574
-0.00848936
-0.00860074
-0.00871015
-0.00881795
-0.00892435
-0.00902918
-0.00913244
-0.00923442
-0.00933578
-0.00943689
-0.00953764
-0.00963767
-0.00973693
-0.00983566
-0.00993428
-0.0100328
-0.0101311
-0.0102288
-0.0103262
-0.0104235
-0.0105208
-0.0106179
-0.0107147
-0.0108112
-0.0109077
-0.0110044
-0.011101
-0.0111976
-0.0112939
-0.0113903
-0.0114868
-0.0115838
-0.0116809
-0.011778
-0.0118751
-0.0119723
-0.0120697
-0.0121673
-0.0122648
-0.0123625
-0.0124602
-0.0125581
-0.012656
-0.0127541
-0.0128525
-0.0129512
-0.0130505
-0.01315
-0.01325
-0.0133502
-0.0134513
-0.0135529
-0.0136551
-0.0137577
-0.013861
-0.0139647
-0.0140691
-0.0141737
-0.0142789
-0.0143847
-0.0144909
-0.0145976
-0.0147045
-0.0148121
-0.0149202
-0.0150289