/*--------------------------------*- C++ -*----------------------------------*\
| =========                 |                                                 |
| \\      /  F ield         | OpenFOAM: The Open Source CFD Toolbox           |
|  \\    /   O peration     | Version:  v2012                                 |
|   \\  /    A nd           | Website:  www.openfoam.com                      |
|    \\/     M anipulation  |                                                 |
\*---------------------------------------------------------------------------*/
FoamFile
{
    version     2.0;
    format      ascii;
    class       surfaceScalarField;
    location    "4.05";
    object      phi;
}
// * * * * * * * * * * * * * * * * * * * * * * * * * * * * * * * * * * * * * //

dimensions      [0 3 -1 0 0 0 0];
oriented        oriented;


internalField   nonuniform List<scalar> 
34900
(
1.17911e-06
-8.93068e-08
1.17359e-06
3.39044e-07
1.17672e-06
8.0358e-08
1.16002e-06
-3.07692e-08
1.16323e-06
5.33591e-10
1.15314e-06
-4.17835e-08
1.15754e-06
4.53614e-08
1.14923e-06
-3.0602e-08
1.15383e-06
3.41469e-08
1.14613e-06
-1.74778e-08
1.15164e-06
4.60688e-08
1.14355e-06
-2.00755e-08
1.15021e-06
6.00785e-08
1.13967e-06
-4.63932e-08
1.14776e-06
7.96018e-08
1.13248e-06
-8.12768e-08
1.14289e-06
9.90641e-08
1.12146e-06
-9.41795e-08
1.13067e-06
9.64647e-08
-7.17506e-08
1.08057e-06
1.23399e-06
-9.90359e-08
1.23222e-06
3.40816e-07
1.2334e-06
7.91736e-08
1.21776e-06
-1.51301e-08
1.21845e-06
-1.49256e-10
1.21066e-06
-3.39936e-08
1.21168e-06
4.4339e-08
1.20695e-06
-2.58725e-08
1.2075e-06
3.35956e-08
1.20466e-06
-1.46369e-08
1.20434e-06
4.63905e-08
1.2033e-06
-1.90334e-08
1.20168e-06
6.16929e-08
1.20149e-06
-4.62065e-08
1.197e-06
8.40994e-08
1.19737e-06
-8.16502e-08
1.18849e-06
1.07941e-07
1.19095e-06
-9.6632e-08
1.1715e-06
1.15914e-07
-6.56838e-08
1.16543e-06
1.28962e-06
-1.05871e-07
1.2942e-06
3.36239e-07
1.29153e-06
8.1837e-08
1.28048e-06
-4.08217e-09
1.2758e-06
4.53434e-09
1.27265e-06
-3.084e-08
1.26825e-06
4.87355e-08
1.26898e-06
-2.66038e-08
1.26379e-06
3.87916e-08
1.26684e-06
-1.76938e-08
1.26061e-06
5.26208e-08
1.26556e-06
-2.39779e-08
1.25872e-06
6.85334e-08
1.26356e-06
-5.10462e-08
1.25626e-06
9.14006e-08
1.25893e-06
-8.43265e-08
1.25279e-06
1.14083e-07
1.25151e-06
-9.53576e-08
1.24517e-06
1.2226e-07
-4.62595e-08
1.22574e-06
1.34614e-06
-1.07903e-07
1.35715e-06
3.25229e-07
1.35139e-06
8.75924e-08
1.34574e-06
1.56942e-09
1.3359e-06
1.43752e-08
1.33668e-06
-3.16197e-08
1.32838e-06
5.7032e-08
1.3325e-06
-3.07262e-08
1.3246e-06
4.66959e-08
1.3296e-06
-2.26934e-08
1.32254e-06
5.96812e-08
1.32765e-06
-2.90905e-08
1.32247e-06
7.37187e-08
1.32551e-06
-5.40914e-08
1.32238e-06
9.45317e-08
1.32163e-06
-8.35761e-08
1.32135e-06
1.1436e-07
1.31526e-06
-8.92697e-08
1.31524e-06
1.22281e-07
-2.36749e-08
1.29266e-06
1.40486e-06
-1.04412e-07
1.42008e-06
3.10009e-07
1.41357e-06
9.41064e-08
1.41208e-06
3.06207e-09
1.39963e-06
2.68178e-08
1.40181e-06
-3.37959e-08
1.39302e-06
6.58222e-08
1.39728e-06
-3.4986e-08
1.39047e-06
5.35042e-08
1.39404e-06
-2.62603e-08
1.38949e-06
6.42258e-08
1.39233e-06
-3.19311e-08
1.39041e-06
7.56415e-08
1.39113e-06
-5.48143e-08
1.39105e-06
9.46113e-08
1.38845e-06
-8.09752e-08
1.39038e-06
1.12433e-07
1.38242e-06
-8.13138e-08
1.38429e-06
1.20412e-07
-9.95209e-10
1.36161e-06
1.46759e-06
-9.63248e-08
1.48372e-06
2.93873e-07
1.47908e-06
9.87485e-08
1.47969e-06
2.45251e-09
1.4678e-06
3.87124e-08
1.46919e-06
-3.51834e-08
1.46242e-06
7.25825e-08
1.4651e-06
-3.766e-08
1.46086e-06
5.77408e-08
1.4624e-06
-2.77963e-08
1.46034e-06
6.62813e-08
1.46153e-06
-3.31186e-08
1.46151e-06
7.56573e-08
1.46122e-06
-5.45226e-08
1.46241e-06
9.34218e-08
1.45906e-06
-7.76184e-08
1.46202e-06
1.09472e-07
1.45269e-06
-7.19856e-08
1.456e-06
1.17105e-07
2.15321e-08
1.43347e-06
1.53572e-06
-8.58244e-08
1.55002e-06
2.79566e-07
1.54868e-06
1.00089e-07
1.54986e-06
1.27398e-09
1.54049e-06
4.8084e-08
1.54045e-06
-3.51454e-08
1.53625e-06
7.67857e-08
1.53741e-06
-3.88225e-08
1.53523e-06
5.99189e-08
1.53558e-06
-2.81471e-08
1.53489e-06
6.69715e-08
1.53541e-06
-3.36394e-08
1.53621e-06
7.4862e-08
1.5355e-06
-5.38156e-08
1.53739e-06
9.15305e-08
1.53334e-06
-7.35667e-08
1.53727e-06
1.05546e-07
1.52652e-06
-6.12332e-08
1.53102e-06
1.12597e-07
4.34693e-08
1.50909e-06
1.60959e-06
-7.52828e-08
1.62087e-06
2.68283e-07
1.62254e-06
9.84182e-08
1.62373e-06
8.30672e-11
1.61726e-06
5.45536e-08
1.61636e-06
-3.42388e-08
1.61405e-06
7.90944e-08
1.61443e-06
-3.92074e-08
1.61339e-06
6.09583e-08
1.61335e-06
-2.81038e-08
1.61329e-06
6.70283e-08
1.61358e-06
-3.39229e-08
1.61479e-06
7.36491e-08
1.6137e-06
-5.2728e-08
1.61621e-06
8.90256e-08
1.6113e-06
-6.86635e-08
1.61616e-06
1.00688e-07
1.60405e-06
-4.91255e-08
1.60936e-06
1.07294e-07
6.42476e-08
1.58858e-06
1.68859e-06
-6.62959e-08
1.69713e-06
2.59744e-07
1.70046e-06
9.50806e-08
1.70172e-06
-1.1753e-09
1.6976e-06
5.86779e-08
1.69664e-06
-3.32846e-08
1.69546e-06
8.02781e-08
1.69562e-06
-3.93683e-08
1.69516e-06
6.14213e-08
1.69507e-06
-2.80124e-08
1.69539e-06
6.67062e-08
1.69549e-06
-3.40264e-08
1.69705e-06
7.20905e-08
1.69546e-06
-5.11335e-08
1.69859e-06
8.58923e-08
1.6927e-06
-6.27692e-08
1.6984e-06
9.49829e-08
1.68513e-06
-3.58591e-08
1.69076e-06
1.01668e-07
8.33096e-08
1.6717e-06
1.77183e-06
-5.93998e-08
1.77862e-06
2.52951e-07
1.78226e-06
9.14437e-08
1.78373e-06
-2.64845e-09
1.7812e-06
6.12105e-08
1.78071e-06
-3.27959e-08
1.78019e-06
8.07918e-08
1.78036e-06
-3.95304e-08
1.78025e-06
6.15245e-08
1.78017e-06
-2.79325e-08
1.78084e-06
6.6039e-08
1.78069e-06
-3.38759e-08
1.78264e-06
7.01438e-08
1.78039e-06
-4.88922e-08
1.7842e-06
8.20872e-08
1.77725e-06
-5.58161e-08
1.78365e-06
8.85782e-08
1.76956e-06
-2.17662e-08
1.77498e-06
9.62444e-08
1.00144e-07
1.75815e-06
1.85874e-06
-5.43869e-08
1.86474e-06
2.46941e-07
1.86788e-06
8.8306e-08
1.86958e-06
-4.35013e-09
1.86803e-06
6.27624e-08
1.86815e-06
-3.29091e-08
1.8681e-06
8.08352e-08
1.8683e-06
-3.97273e-08
1.86851e-06
6.13168e-08
1.86838e-06
-2.7808e-08
1.86943e-06
6.49874e-08
1.86892e-06
-3.33657e-08
1.87134e-06
6.77234e-08
1.86835e-06
-4.58972e-08
1.87286e-06
7.75769e-08
1.86489e-06
-4.78446e-08
1.87175e-06
8.17167e-08
1.85729e-06
-7.30854e-09
1.86196e-06
9.15722e-08
1.14348e-07
1.84776e-06
1.94923e-06
-5.07759e-08
1.95504e-06
2.41125e-07
1.95747e-06
8.58828e-08
1.95932e-06
-6.19961e-09
1.95833e-06
6.37488e-08
1.95896e-06
-3.35362e-08
1.9593e-06
8.04929e-08
1.95949e-06
-3.99155e-08
1.96002e-06
6.07839e-08
1.95976e-06
-2.75461e-08
1.96126e-06
6.34884e-08
1.96028e-06
-3.23916e-08
1.96327e-06
6.47366e-08
1.95947e-06
-4.20942e-08
1.96467e-06
7.23781e-08
1.95584e-06
-3.90175e-08
1.96282e-06
7.47397e-08
1.94853e-06
6.98249e-09
1.95196e-06
8.81386e-08
1.25713e-07
1.94059e-06
2.04353e-06
-4.81185e-08
2.0494e-06
2.35261e-07
2.05122e-06
8.40594e-08
2.05313e-06
-8.11498e-09
2.05246e-06
6.44196e-08
2.05344e-06
-3.4511e-08
2.05413e-06
7.9803e-08
2.05423e-06
-4.00199e-08
2.05513e-06
5.98833e-08
2.05463e-06
-2.70436e-08
2.05665e-06
6.14686e-08
2.05512e-06
-3.08638e-08
2.05875e-06
6.1109e-08
2.05415e-06
-3.7492e-08
2.05994e-06
6.65855e-08
2.05053e-06
-2.96105e-08
2.05721e-06
6.80584e-08
2.04361e-06
2.05901e-08
2.04547e-06
8.62718e-08
1.34286e-07
2.0369e-06
2.14198e-06
-4.61014e-08
2.14793e-06
2.29314e-07
2.14937e-06
8.26188e-08
2.15131e-06
-1.00493e-08
2.15083e-06
6.48949e-08
2.15198e-06
-3.56652e-08
2.15302e-06
7.87721e-08
2.15294e-06
-3.99477e-08
2.15427e-06
5.85537e-08
2.15343e-06
-2.61968e-08
2.15604e-06
5.88519e-08
2.1539e-06
-2.87166e-08
2.1582e-06
5.68047e-08
2.15288e-06
-3.21713e-08
2.15908e-06
6.03823e-08
2.14945e-06
-1.9982e-08
2.15541e-06
6.21065e-08
2.14292e-06
3.30803e-08
2.14309e-06
8.61009e-08
1.40349e-07
2.13702e-06
2.24492e-06
-4.4535e-08
2.2509e-06
2.23336e-07
2.25217e-06
8.13495e-08
2.2541e-06
-1.19775e-08
2.25379e-06
6.51997e-08
2.25498e-06
-3.68504e-08
2.25638e-06
7.73738e-08
2.25602e-06
-3.95949e-08
2.25786e-06
5.67191e-08
2.25657e-06
-2.49079e-08
2.25985e-06
5.55708e-08
2.25705e-06
-2.59209e-08
2.26201e-06
5.18453e-08
2.25614e-06
-2.62933e-08
2.26249e-06
5.40321e-08
2.25303e-06
-1.05231e-08
2.25785e-06
5.72818e-08
2.24679e-06
4.41402e-08
2.24533e-06
8.75675e-08
1.44346e-07
2.24133e-06
2.35265e-06
-4.33142e-08
2.35858e-06
2.17412e-07
2.35986e-06
8.00697e-08
2.36175e-06
-1.38716e-08
2.36166e-06
6.52961e-08
2.36274e-06
-3.79337e-08
2.36456e-06
7.55515e-08
2.36382e-06
-3.88522e-08
2.36624e-06
5.42953e-08
2.36443e-06
-2.30938e-08
2.36842e-06
5.15825e-08
2.365e-06
-2.24995e-08
2.37051e-06
4.63284e-08
2.36432e-06
-2.01043e-08
2.3705e-06
4.78594e-08
2.36158e-06
-1.60408e-09
2.36498e-06
5.38744e-08
2.3555e-06
5.36283e-08
2.35262e-06
9.04403e-08
1.46804e-07
2.35017e-06
2.46547e-06
-4.23872e-08
2.47124e-06
2.11638e-07
2.47269e-06
7.862e-08
2.47451e-06
-1.5685e-08
2.4747e-06
6.51067e-08
2.47555e-06
-3.8789e-08
2.47788e-06
7.32246e-08
2.47664e-06
-3.76117e-08
2.47973e-06
5.1202e-08
2.47734e-06
-2.06992e-08
2.48203e-06
4.68882e-08
2.47808e-06
-1.85453e-08
2.48397e-06
4.04369e-08
2.47778e-06
-1.39212e-08
2.48343e-06
4.22124e-08
2.47535e-06
6.47498e-09
2.47721e-06
5.20189e-08
2.46924e-06
6.15999e-08
2.46533e-06
9.43414e-08
1.48262e-07
2.46388e-06
2.58364e-06
-4.17364e-08
2.58917e-06
2.06115e-07
2.59093e-06
7.68529e-08
2.5926e-06
-1.73484e-08
2.59317e-06
6.45292e-08
2.59368e-06
-3.92918e-08
2.5966e-06
7.02988e-08
2.59477e-06
-3.5776e-08
2.59859e-06
4.73773e-08
2.59561e-06
-1.77133e-08
2.60094e-06
4.1553e-08
2.59663e-06
-1.4233e-08
2.60264e-06
3.44276e-08
2.5968e-06
-8.08773e-09
2.60162e-06
3.73988e-08
2.59456e-06
1.35334e-08
2.59491e-06
5.16666e-08
2.58822e-06
6.82895e-08
2.58374e-06
9.88201e-08
1.49206e-07
2.5828e-06
2.70746e-06
-4.13664e-08
2.71263e-06
2.00948e-07
2.71485e-06
7.46248e-08
2.71628e-06
-1.87717e-08
2.71736e-06
6.34452e-08
2.71739e-06
-3.9321e-08
2.72101e-06
6.66798e-08
2.7185e-06
-3.32722e-08
2.72308e-06
4.2799e-08
2.71956e-06
-1.41911e-08
2.72539e-06
3.57225e-08
2.72098e-06
-9.81901e-09
2.7268e-06
2.86041e-08
2.72164e-06
-2.92954e-09
2.72539e-06
3.36483e-08
2.7194e-06
1.95258e-08
2.71845e-06
5.26163e-08
2.71272e-06
7.40214e-08
2.70808e-06
1.03457e-07
1.50002e-07
2.70729e-06
2.8372e-06
-4.12952e-08
2.8419e-06
1.96246e-07
2.84473e-06
7.17918e-08
2.84581e-06
-1.98501e-08
2.84753e-06
6.17301e-08
2.84697e-06
-3.87673e-08
2.85136e-06
6.22906e-08
2.84816e-06
-3.007e-08
2.85345e-06
3.75072e-08
2.84954e-06
-1.02745e-08
2.85563e-06
2.96291e-08
2.85143e-06
-5.61768e-09
2.85677e-06
2.32606e-08
2.85253e-06
1.31253e-09
2.85513e-06
3.1051e-08
2.85008e-06
2.45708e-08
2.84812e-06
5.45763e-08
2.84304e-06
7.91003e-08
2.83855e-06
1.07947e-07
1.50859e-07
2.83769e-06
2.97315e-06
-4.15479e-08
2.97728e-06
1.92117e-07
2.98086e-06
6.82088e-08
2.98148e-06
-2.04744e-08
2.98395e-06
5.92655e-08
2.98273e-06
-3.75476e-08
2.98793e-06
5.70934e-08
2.98406e-06
-2.6205e-08
2.98994e-06
3.1626e-08
2.98587e-06
-6.19887e-09
2.99192e-06
2.35752e-08
2.98827e-06
-1.96343e-09
2.99289e-06
1.86382e-08
2.98967e-06
4.52797e-09
2.9912e-06
2.95198e-08
2.98685e-06
2.89304e-08
2.98418e-06
5.72457e-08
2.97952e-06
8.37548e-08
2.97535e-06
1.12119e-07
1.51843e-07
2.97436e-06
3.11561e-06
-4.21517e-08
3.11905e-06
1.88674e-07
3.12353e-06
6.37317e-08
3.1236e-06
-2.05418e-08
3.12691e-06
5.59546e-08
3.12498e-06
-3.56227e-08
3.13096e-06
5.11138e-08
3.12656e-06
-2.17997e-08
3.13281e-06
2.5375e-08
3.12889e-06
-2.28224e-09
3.13457e-06
1.78971e-08
3.13177e-06
8.41793e-10
3.13552e-06
1.48803e-08
3.13331e-06
6.74414e-09
3.13401e-06
2.88164e-08
3.13002e-06
3.29235e-08
3.12686e-06
6.04016e-08
3.12243e-06
8.81902e-08
3.11869e-06
1.15859e-07
1.52928e-07
3.1176e-06
3.26489e-06
-4.31324e-08
3.26754e-06
1.86025e-07
3.27305e-06
5.82254e-08
3.27248e-06
-1.99732e-08
3.27669e-06
5.17417e-08
3.27409e-06
-3.30183e-08
3.28074e-06
4.44636e-08
3.27602e-06
-1.70827e-08
3.28232e-06
1.90754e-08
3.27895e-06
1.08878e-09
3.28391e-06
1.29343e-08
3.28218e-06
2.57031e-09
3.28505e-06
1.20128e-08
3.28372e-06
8.07106e-09
3.28393e-06
2.86121e-08
3.28005e-06
3.67992e-08
3.27642e-06
6.40323e-08
3.27183e-06
9.27818e-08
3.26888e-06
1.18808e-07
1.54218e-07
3.26759e-06
3.42131e-06
-4.45116e-08
3.42307e-06
1.84269e-07
3.42971e-06
5.15775e-08
3.42848e-06
-1.87336e-08
3.43358e-06
4.66374e-08
3.43042e-06
-2.98543e-08
3.43751e-06
3.73701e-08
3.43283e-06
-1.24039e-08
3.43876e-06
1.31432e-08
3.43636e-06
3.49047e-09
3.44031e-06
8.98486e-09
3.43978e-06
3.09982e-09
3.44181e-06
9.98354e-09
3.44127e-06
8.60766e-09
3.44141e-06
2.84766e-08
3.43788e-06
4.03229e-08
3.43322e-06
6.87003e-08
3.42738e-06
9.86161e-08
3.4255e-06
1.20693e-07
1.55627e-07
3.42409e-06
3.5852e-06
-4.63039e-08
3.58598e-06
1.83487e-07
3.59385e-06
4.37145e-08
3.59197e-06
-1.68522e-08
3.59787e-06
4.07374e-08
3.59437e-06
-2.63562e-08
3.60157e-06
3.01672e-08
3.59735e-06
-8.18674e-09
3.60251e-06
7.984e-09
3.60138e-06
4.62268e-09
3.60422e-06
6.14384e-09
3.60478e-06
2.53813e-09
3.60622e-06
8.54941e-09
3.60629e-06
8.53567e-09
3.607e-06
2.77706e-08
3.60666e-06
4.06632e-08
3.60741e-06
6.79428e-08
3.60101e-06
1.05019e-07
3.58336e-06
1.3834e-07
1.52713e-07
3.58628e-06
3.75692e-06
-4.85136e-08
3.75667e-06
1.83732e-07
3.76576e-06
3.46235e-08
3.76335e-06
-1.44438e-08
3.76985e-06
3.42363e-08
3.76635e-06
-2.28531e-08
3.77327e-06
2.32519e-08
3.76991e-06
-4.83136e-09
3.77402e-06
3.87297e-09
3.77418e-06
4.46459e-09
3.77618e-06
4.14546e-09
3.7774e-06
1.32088e-09
3.77885e-06
7.09296e-09
3.77935e-06
8.03629e-09
3.78133e-06
2.57879e-08
3.78495e-06
3.70507e-08
3.79033e-06
6.25572e-08
3.79799e-06
9.73575e-08
3.80944e-06
1.26892e-07
1.75821e-07
3.78633e-06
3.93681e-06
-5.11313e-08
3.93553e-06
1.85007e-07
3.94577e-06
2.43861e-08
3.94307e-06
-1.17414e-08
3.94985e-06
2.74521e-08
3.94679e-06
-1.97952e-08
3.95296e-06
1.70836e-08
3.95083e-06
-2.6964e-09
3.95377e-06
9.26307e-10
3.95499e-06
3.24322e-09
3.95662e-06
2.51914e-09
3.95801e-06
-7.05369e-11
3.96007e-06
5.03294e-09
3.96195e-06
6.16046e-09
3.96317e-06
2.45614e-08
3.95405e-06
4.61714e-08
3.94408e-06
7.25279e-08
3.93755e-06
1.03893e-07
3.9277e-06
1.36741e-07
1.69457e-07
3.93406e-06
4.12525e-06
-5.4131e-08
4.123e-06
1.87255e-07
4.13419e-06
1.32021e-08
4.13156e-06
-9.11281e-09
4.1382e-06
2.08106e-08
4.13609e-06
-1.7692e-08
4.14111e-06
1.20642e-08
4.14037e-06
-1.95303e-09
4.14229e-06
-9.9385e-10
4.14414e-06
1.39078e-09
4.14589e-06
7.71855e-10
4.14723e-06
-1.41229e-09
4.1478e-06
4.46832e-09
4.14327e-06
1.0686e-08
4.13584e-06
3.19965e-08
4.13122e-06
5.07886e-08
4.12682e-06
7.69258e-08
4.12184e-06
1.08875e-07
4.11807e-06
1.40514e-07
1.66232e-07
4.12129e-06
4.32264e-06
-5.74658e-08
4.31955e-06
1.90342e-07
4.33133e-06
1.41895e-09
4.32928e-06
-7.06167e-09
4.33529e-06
1.47987e-08
4.33462e-06
-1.70203e-08
4.33828e-06
8.41142e-09
4.3388e-06
-2.4743e-09
4.3401e-06
-2.29786e-09
4.34203e-06
-5.36335e-10
4.34355e-06
-7.53735e-10
4.34153e-06
6.08716e-10
4.33732e-06
8.68478e-09
4.33252e-06
1.54804e-08
4.32838e-06
3.61342e-08
4.3233e-06
5.58724e-08
4.31925e-06
8.09757e-08
4.31614e-06
1.11984e-07
4.31528e-06
1.41376e-07
1.63937e-07
4.31757e-06
4.52937e-06
-6.10661e-08
4.52567e-06
1.94045e-07
4.53755e-06
-1.04569e-08
4.5367e-06
-6.21387e-09
4.54158e-06
9.91465e-09
4.54272e-06
-1.81537e-08
4.54503e-06
6.09938e-09
4.54639e-06
-3.83829e-09
4.54761e-06
-3.51209e-09
4.5482e-06
-1.12842e-09
4.54724e-06
2.06151e-10
4.54282e-06
5.03133e-09
4.53861e-06
1.28949e-08
4.53395e-06
2.0136e-08
4.53035e-06
3.97357e-08
4.52548e-06
6.07409e-08
4.52163e-06
8.48269e-08
4.51969e-06
1.13923e-07
4.5208e-06
1.40267e-07
1.62542e-07
4.52219e-06
4.74589e-06
-6.48402e-08
4.74189e-06
1.98046e-07
4.75319e-06
-2.17636e-08
4.75424e-06
-7.26227e-09
4.7576e-06
6.56228e-09
4.76067e-06
-2.12256e-08
4.762e-06
4.76534e-09
4.76349e-06
-5.32291e-09
4.76464e-06
-4.66139e-09
4.76192e-06
1.5852e-09
4.75897e-06
3.1541e-09
4.75468e-06
9.32292e-09
4.7502e-06
1.73791e-08
4.74567e-06
2.46604e-08
4.74228e-06
4.3129e-08
4.73787e-06
6.51493e-08
4.7342e-06
8.84947e-08
4.73317e-06
1.14953e-07
4.73454e-06
1.38899e-07
1.60913e-07
4.73617e-06
4.97263e-06
-6.86754e-08
4.96873e-06
2.01945e-07
4.9787e-06
-3.17242e-08
4.9823e-06
-1.08708e-08
4.98393e-06
4.93445e-09
4.98878e-06
-2.60692e-08
4.98973e-06
3.80958e-09
4.99019e-06
-5.78174e-09
4.99008e-06
-4.55182e-09
4.98476e-06
6.90386e-09
4.98094e-06
6.97935e-09
4.97698e-06
1.32742e-08
4.97252e-06
2.18489e-08
4.96792e-06
2.92584e-08
4.96462e-06
4.64298e-08
4.96079e-06
6.89746e-08
4.95745e-06
9.18331e-08
4.95701e-06
1.154e-07
4.95804e-06
1.37868e-07
1.586e-07
4.96035e-06
5.21008e-06
-7.24414e-08
5.20676e-06
2.05266e-07
5.21455e-06
-3.95127e-08
5.22121e-06
-1.75302e-08
5.22127e-06
4.86909e-09
5.22743e-06
-3.2225e-08
5.22851e-06
2.73331e-09
5.22655e-06
-3.82575e-09
5.22406e-06
-2.0647e-09
5.21824e-06
1.27312e-08
5.21371e-06
1.15038e-08
5.21025e-06
1.67323e-08
5.20594e-06
2.61626e-08
5.20116e-06
3.4034e-08
5.19784e-06
4.9752e-08
5.1946e-06
7.22126e-08
5.1919e-06
9.45411e-08
5.19154e-06
1.15755e-07
5.19256e-06
1.36845e-07
1.55809e-07
5.19535e-06
5.45875e-06
-7.60018e-08
5.45651e-06
2.07511e-07
5.46143e-06
-4.44421e-08
5.47117e-06
-2.72646e-08
5.47031e-06
5.73292e-09
5.47699e-06
-3.89139e-08
5.47835e-06
1.37799e-09
5.47218e-06
2.34505e-09
5.46858e-06
1.53841e-09
5.46313e-06
1.81816e-08
5.45804e-06
1.65899e-08
5.45489e-06
1.98828e-08
5.45086e-06
3.0194e-08
5.44597e-06
3.89175e-08
5.44251e-06
5.3218e-08
5.43977e-06
7.49462e-08
5.4379e-06
9.64174e-08
5.43745e-06
1.162e-07
5.43864e-06
1.35658e-07
1.52695e-07
5.44175e-06
5.71918e-06
-7.92211e-08
5.71852e-06
2.08166e-07
5.72016e-06
-4.60769e-08
5.73238e-06
-3.94862e-08
5.73132e-06
6.78947e-09
5.73669e-06
-4.42809e-08
5.7361e-06
1.96939e-09
5.72825e-06
1.0195e-08
5.7246e-06
5.19114e-09
5.72013e-06
2.26431e-08
5.71452e-06
2.22074e-08
5.71134e-06
2.30543e-08
5.70772e-06
3.38155e-08
5.7029e-06
4.37448e-08
5.69923e-06
5.68867e-08
5.69687e-06
7.73006e-08
5.6958e-06
9.74907e-08
5.69542e-06
1.16579e-07
5.69677e-06
1.34304e-07
1.49367e-07
5.7001e-06
5.99195e-06
-8.19794e-08
5.99339e-06
2.06727e-07
5.99158e-06
-4.42721e-08
6.00496e-06
-5.28606e-08
6.00321e-06
8.54192e-09
6.00457e-06
-4.5648e-08
6.00434e-06
2.19865e-09
5.99673e-06
1.78106e-08
5.99322e-06
8.69758e-09
5.98966e-06
2.62072e-08
5.98372e-06
2.81429e-08
5.98018e-06
2.65989e-08
5.97703e-06
3.69673e-08
5.97245e-06
4.83164e-08
5.96861e-06
6.07299e-08
5.96653e-06
7.93869e-08
5.96607e-06
9.79476e-08
5.96602e-06
1.16626e-07
5.96755e-06
1.32772e-07
1.45916e-07
5.97101e-06
6.27769e-06
-8.4181e-08
6.28161e-06
2.02806e-07
6.2766e-06
-3.92641e-08
6.28917e-06
-6.54285e-08
6.28654e-06
1.11741e-08
6.28566e-06
-4.47712e-08
6.28642e-06
1.44284e-09
6.27878e-06
2.54535e-08
6.27491e-06
1.25621e-08
6.27221e-06
2.89128e-08
6.26624e-06
3.41113e-08
6.26205e-06
3.07898e-08
6.25928e-06
3.97307e-08
6.25519e-06
5.24104e-08
6.25127e-06
6.46495e-08
6.24938e-06
8.12805e-08
6.24929e-06
9.80343e-08
6.24978e-06
1.16132e-07
6.25156e-06
1.30989e-07
1.42388e-07
6.25509e-06
6.57704e-06
-8.57525e-08
6.58367e-06
1.96178e-07
6.57593e-06
-3.15284e-08
6.58633e-06
-7.58263e-08
6.58408e-06
1.34258e-08
6.58122e-06
-4.19101e-08
6.58247e-06
1.88847e-10
6.57487e-06
3.30585e-08
6.57027e-06
1.71579e-08
6.56831e-06
3.0871e-08
6.56262e-06
3.98041e-08
6.55767e-06
3.57378e-08
6.55508e-06
4.23209e-08
6.55165e-06
5.58457e-08
6.54783e-06
6.84639e-08
6.54607e-06
8.3042e-08
6.54616e-06
9.79477e-08
6.54725e-06
1.15042e-07
6.54938e-06
1.28855e-07
1.38768e-07
6.553e-06
6.89068e-06
-8.66438e-08
6.89998e-06
1.86878e-07
6.89026e-06
-2.18089e-08
6.8982e-06
-8.37681e-08
6.89632e-06
1.5307e-08
6.89138e-06
-3.69625e-08
6.8928e-06
-1.23664e-09
6.88558e-06
4.0277e-08
6.87999e-06
2.27454e-08
6.87857e-06
3.22973e-08
6.87345e-06
4.49208e-08
6.86781e-06
4.13821e-08
6.86511e-06
4.50163e-08
6.86239e-06
5.85648e-08
6.85893e-06
7.19237e-08
6.85728e-06
8.46907e-08
6.85741e-06
9.78224e-08
6.85903e-06
1.13424e-07
6.86161e-06
1.26274e-07
1.34993e-07
6.86538e-06
7.21932e-06
-8.6826e-08
7.23103e-06
1.75165e-07
7.22031e-06
-1.10898e-08
7.22574e-06
-8.9191e-08
7.22399e-06
1.70525e-08
7.21676e-06
-2.97368e-08
7.21795e-06
-2.42511e-09
7.21151e-06
4.67221e-08
7.20485e-06
2.94056e-08
7.20362e-06
3.35291e-08
7.19934e-06
4.91978e-08
7.19321e-06
4.75111e-08
7.19013e-06
4.81006e-08
7.18804e-06
6.06523e-08
7.18521e-06
7.4756e-08
7.18371e-06
8.61891e-08
7.1838e-06
9.77325e-08
7.18581e-06
1.11416e-07
7.18887e-06
1.23207e-07
1.3098e-07
7.19289e-06
7.56369e-06
-8.6295e-08
7.57749e-06
1.6137e-07
7.56673e-06
-3.33523e-10
7.56987e-06
-9.23288e-08
7.56787e-06
1.90498e-08
7.5581e-06
-1.99665e-08
7.55859e-06
-2.91046e-09
7.55327e-06
5.20412e-08
7.54563e-06
3.70454e-08
7.54417e-06
3.4985e-08
7.5409e-06
5.24709e-08
7.53463e-06
5.37847e-08
7.53094e-06
5.17927e-08
7.52927e-06
6.23171e-08
7.52731e-06
7.67147e-08
7.52603e-06
8.74756e-08
7.5261e-06
9.76595e-08
7.52833e-06
1.09181e-07
7.53185e-06
1.19688e-07
1.26656e-07
7.53618e-06
7.92458e-06
-8.50603e-08
7.93998e-06
1.45969e-07
7.93024e-06
9.40815e-09
7.9318e-06
-9.38937e-08
7.92871e-06
2.21415e-08
7.91616e-06
-7.41576e-09
7.91547e-06
-2.22392e-09
7.91153e-06
5.59827e-08
7.90317e-06
4.54046e-08
7.90105e-06
3.71067e-08
7.89877e-06
5.47506e-08
7.89278e-06
5.9774e-08
7.8884e-06
5.61719e-08
7.88688e-06
6.38346e-08
7.8859e-06
7.76998e-08
7.88495e-06
8.84246e-08
7.8851e-06
9.75087e-08
7.88742e-06
1.06857e-07
7.89129e-06
1.15817e-07
1.21986e-07
7.89597e-06
8.30275e-06
-8.31261e-08
8.31921e-06
1.29511e-07
8.31257e-06
1.60451e-08
8.31258e-06
-9.39101e-08
8.30703e-06
2.76919e-08
8.29174e-06
7.87798e-09
8.28947e-06
4.45233e-11
8.287e-06
5.84556e-08
8.27829e-06
5.41158e-08
8.27512e-06
4.02747e-08
8.27364e-06
5.62259e-08
8.26835e-06
6.50708e-08
8.26341e-06
6.11145e-08
8.26175e-06
6.54859e-08
8.26163e-06
7.78202e-08
8.26122e-06
8.88372e-08
8.26158e-06
9.71541e-08
8.26392e-06
1.04511e-07
8.26801e-06
1.11726e-07
1.16987e-07
8.27301e-06
8.69902e-06
-8.04862e-08
8.71713e-06
1.11401e-07
8.71308e-06
2.01017e-08
8.71141e-06
-9.22431e-08
8.70295e-06
3.61482e-08
8.68569e-06
2.51425e-08
8.68161e-06
4.12146e-09
8.68042e-06
5.96482e-08
8.67179e-06
6.27459e-08
8.66733e-06
4.47317e-08
8.66633e-06
5.72291e-08
8.66202e-06
6.93768e-08
8.65682e-06
6.63172e-08
8.65482e-06
6.7482e-08
8.6553e-06
7.73382e-08
8.65559e-06
8.85536e-08
8.65631e-06
9.64313e-08
8.65869e-06
1.02136e-07
8.66288e-06
1.07532e-07
1.11732e-07
8.66814e-06
9.11422e-06
-7.70827e-08
9.1361e-06
8.95131e-08
9.13267e-06
2.35303e-08
9.12377e-06
-8.33395e-08
9.11654e-06
4.33842e-08
9.09895e-06
4.27307e-08
9.09292e-06
1.0145e-08
9.09259e-06
5.99814e-08
9.08448e-06
7.08602e-08
9.07866e-06
5.05491e-08
9.0777e-06
5.81839e-08
9.07453e-06
7.25465e-08
9.06949e-06
7.13663e-08
9.06708e-06
6.98888e-08
9.06781e-06
7.66075e-08
9.06885e-06
8.75155e-08
9.07011e-06
9.51678e-08
9.07259e-06
9.96536e-08
9.07682e-06
1.03308e-07
1.06314e-07
9.08223e-06
9.54916e-06
-7.27821e-08
9.56784e-06
7.08321e-08
9.55682e-06
3.45512e-08
9.5505e-06
-7.70207e-08
9.54884e-06
4.50458e-08
9.53252e-06
5.90472e-08
9.52435e-06
1.83126e-08
9.52436e-06
5.9974e-08
9.51717e-06
7.80531e-08
9.51013e-06
5.7589e-08
9.50876e-06
5.95534e-08
9.5067e-06
7.46101e-08
9.50222e-06
7.58378e-08
9.4995e-06
7.26104e-08
9.50014e-06
7.5966e-08
9.50186e-06
8.57987e-08
9.50379e-06
9.32352e-08
9.50651e-06
9.69376e-08
9.51074e-06
9.90738e-08
1.00817e-07
9.51624e-06
1.00049e-05
-6.75056e-08
1.00137e-05
6.20125e-08
1.00044e-05
4.38412e-08
9.99928e-06
-7.19117e-08
1.00014e-05
4.28932e-08
9.98717e-06
7.3311e-08
9.97687e-06
2.86091e-08
9.97669e-06
6.01534e-08
9.97068e-06
8.40669e-08
9.96275e-06
6.55191e-08
9.96054e-06
6.17607e-08
9.95938e-06
7.57723e-08
9.95582e-06
7.93958e-08
9.95301e-06
7.54227e-08
9.95336e-06
7.56108e-08
9.95557e-06
8.35942e-08
9.95822e-06
9.05883e-08
9.96132e-06
9.38377e-08
9.9656e-06
9.47858e-08
9.52906e-08
9.97113e-06
1.04825e-05
-6.1329e-08
1.04849e-05
5.96129e-08
1.04808e-05
4.78544e-08
1.04726e-05
-6.36695e-08
1.04755e-05
4.00461e-08
1.04634e-05
8.53562e-08
1.04514e-05
4.05996e-08
1.04505e-05
6.10365e-08
1.04458e-05
8.87633e-08
1.04375e-05
7.38871e-08
1.04342e-05
6.50813e-08
1.04336e-05
7.63712e-08
1.04311e-05
8.18648e-08
1.04285e-05
7.80356e-08
1.04285e-05
7.55664e-08
1.0431e-05
8.11355e-08
1.04343e-05
8.7292e-08
1.04379e-05
9.02316e-08
1.04423e-05
9.03496e-08
8.97596e-08
1.04478e-05
1.09834e-05
-5.46977e-08
1.10073e-05
3.56998e-08
1.09877e-05
6.74667e-08
1.09696e-05
-4.55879e-08
1.09721e-05
3.7548e-08
1.09623e-05
9.51179e-08
1.09491e-05
5.38915e-08
1.09469e-05
6.3149e-08
1.09435e-05
9.22094e-08
1.09352e-05
8.21973e-08
1.09307e-05
6.95932e-08
1.09302e-05
7.68449e-08
1.09288e-05
8.32318e-08
1.09268e-05
8.01123e-08
1.09266e-05
7.57431e-08
1.09291e-05
7.85765e-08
1.0933e-05
8.34748e-08
1.09371e-05
8.60523e-08
1.09418e-05
8.56373e-08
8.41882e-08
1.09474e-05
1.1508e-05
-4.72999e-08
1.15115e-05
3.21167e-08
1.15068e-05
7.21813e-08
1.14919e-05
-3.06464e-08
1.14931e-05
3.62919e-08
1.14851e-05
1.0317e-07
1.14709e-05
6.81098e-08
1.14672e-05
6.68535e-08
1.14648e-05
9.46315e-08
1.1457e-05
8.99302e-08
1.14515e-05
7.51227e-08
1.14507e-05
7.76594e-08
1.14502e-05
8.36817e-08
1.1449e-05
8.13429e-08
1.14487e-05
7.60382e-08
1.14513e-05
7.59956e-08
1.14554e-05
7.93195e-08
1.14602e-05
8.13357e-08
1.14652e-05
8.05674e-08
7.8493e-08
1.14709e-05
1.20581e-05
-3.95548e-08
1.20613e-05
2.88602e-08
1.20539e-05
7.95988e-08
1.20392e-05
-1.59096e-08
1.20393e-05
3.61351e-08
1.20328e-05
1.09698e-07
1.2018e-05
8.28716e-08
1.20124e-05
7.24787e-08
1.20106e-05
9.64995e-08
1.20038e-05
9.66891e-08
1.19975e-05
8.13764e-08
1.1996e-05
7.9161e-08
1.19962e-05
8.3502e-08
1.19959e-05
8.16257e-08
1.19959e-05
7.61123e-08
1.19984e-05
7.34201e-08
1.20028e-05
7.49444e-08
1.2008e-05
7.61486e-08
1.20135e-05
7.50746e-08
7.2563e-08
1.20194e-05
1.26346e-05
-3.1525e-08
1.26353e-05
2.80776e-08
1.26299e-05
8.50587e-08
1.26133e-05
6.47425e-10
1.26115e-05
3.80005e-08
1.26064e-05
1.14748e-07
1.25916e-05
9.77127e-08
1.25839e-05
8.01445e-08
1.2582e-05
9.83688e-08
1.25765e-05
1.02204e-07
1.257e-05
8.79371e-08
1.25676e-05
8.14904e-08
1.25681e-05
8.30528e-08
1.25686e-05
8.11141e-08
1.25692e-05
7.54967e-08
1.25717e-05
7.09116e-08
1.25763e-05
7.03821e-08
1.25818e-05
7.06324e-08
1.25877e-05
6.91518e-08
6.63186e-08
1.2594e-05
1.32388e-05
-2.3399e-08
1.32442e-05
2.26737e-08
1.32362e-05
9.30387e-08
1.32155e-05
2.13425e-08
1.32109e-05
4.26405e-08
1.32071e-05
1.185e-07
1.31927e-05
1.12118e-07
1.31831e-05
8.98141e-08
1.31806e-05
1.00875e-07
1.31762e-05
1.06527e-07
1.31698e-05
9.43623e-08
1.31667e-05
8.46298e-08
1.3167e-05
8.27405e-08
1.31681e-05
7.99768e-08
1.31696e-05
7.39812e-08
1.31722e-05
6.83474e-08
1.3177e-05
6.55392e-08
1.31827e-05
6.49876e-08
1.31891e-05
6.27738e-08
5.96854e-08
1.31957e-05
1.3872e-05
-1.52637e-08
1.38766e-05
1.81033e-08
1.38691e-05
1.00522e-07
1.3847e-05
4.34189e-08
1.38394e-05
5.02778e-08
1.38363e-05
1.21621e-07
1.38227e-05
1.25692e-07
1.38113e-05
1.01264e-07
1.38075e-05
1.04602e-07
1.38041e-05
1.09982e-07
1.37982e-05
1.00204e-07
1.37945e-05
8.8392e-08
1.37944e-05
8.28532e-08
1.3796e-05
7.83799e-08
1.37982e-05
7.1687e-08
1.38012e-05
6.53909e-08
1.38064e-05
6.03319e-08
1.3812e-05
5.93718e-08
1.38189e-05
5.58968e-08
5.26329e-08
1.3826e-05
1.45356e-05
-7.23469e-09
1.45304e-05
2.3343e-08
1.45291e-05
1.01858e-07
1.4509e-05
6.34394e-08
1.44984e-05
6.09072e-08
1.44951e-05
1.24892e-07
1.44827e-05
1.38115e-07
1.44699e-05
1.14111e-07
1.44645e-05
1.09954e-07
1.44614e-05
1.13125e-07
1.44564e-05
1.05202e-07
1.44523e-05
9.25009e-08
1.44516e-05
8.35225e-08
1.44534e-05
7.66185e-08
1.44562e-05
6.88545e-08
1.44599e-05
6.16731e-08
1.44653e-05
5.4993e-08
1.44713e-05
5.33322e-08
1.44784e-05
4.87644e-08
4.50622e-08
1.4486e-05
1.52312e-05
4.09018e-10
1.52279e-05
2.67272e-08
1.52229e-05
1.06802e-07
1.52024e-05
8.39381e-08
1.51893e-05
7.40194e-08
1.51852e-05
1.28989e-07
1.5174e-05
1.49331e-07
1.51602e-05
1.27892e-07
1.5153e-05
1.17167e-07
1.51495e-05
1.16594e-07
1.51453e-05
1.09411e-07
1.51412e-05
9.66083e-08
1.514e-05
8.47257e-08
1.51416e-05
7.50084e-08
1.51449e-05
6.56118e-08
1.51494e-05
5.71269e-08
1.51547e-05
4.97281e-08
1.51618e-05
4.6154e-08
1.51689e-05
4.1747e-08
3.67906e-08
1.51771e-05
1.59601e-05
7.6513e-09
1.59569e-05
2.98792e-08
1.5949e-05
1.14755e-07
1.59292e-05
1.03771e-07
1.59136e-05
8.96046e-08
1.59081e-05
1.34487e-07
1.58978e-05
1.59563e-07
1.58836e-05
1.4212e-07
1.58745e-05
1.26293e-07
1.58701e-05
1.20963e-07
1.58664e-05
1.13169e-07
1.58626e-05
1.00394e-07
1.58609e-05
8.63923e-08
1.58622e-05
7.37336e-08
1.58656e-05
6.21445e-08
1.58707e-05
5.20375e-08
1.58765e-05
4.39694e-08
1.58842e-05
3.84115e-08
1.58922e-05
3.38168e-08
2.85677e-08
1.59004e-05
1.67235e-05
1.47084e-08
1.67069e-05
4.65029e-08
1.67084e-05
1.13226e-07
1.66909e-05
1.21284e-07
1.66729e-05
1.0769e-07
1.66654e-05
1.41905e-07
1.66558e-05
1.69191e-07
1.66415e-05
1.56453e-07
1.66306e-05
1.37205e-07
1.66248e-05
1.26711e-07
1.66209e-05
1.1705e-07
1.66176e-05
1.03737e-07
1.66156e-05
8.84249e-08
1.66164e-05
7.28534e-08
1.66199e-05
5.87084e-08
1.66252e-05
4.66793e-08
1.66319e-05
3.73035e-08
1.66401e-05
3.02518e-08
1.66491e-05
2.47459e-08
2.0116e-08
1.66576e-05
1.75242e-05
2.09042e-08
1.75258e-05
4.48453e-08
1.75099e-05
1.29121e-07
1.74887e-05
1.42523e-07
1.74688e-05
1.27606e-07
1.7459e-05
1.51696e-07
1.74494e-05
1.78729e-07
1.74352e-05
1.70727e-07
1.74227e-05
1.4972e-07
1.74152e-05
1.34153e-07
1.74107e-05
1.21589e-07
1.74075e-05
1.06898e-07
1.74052e-05
9.07065e-08
1.74057e-05
7.23923e-08
1.74089e-05
5.54845e-08
1.74145e-05
4.10719e-08
1.74219e-05
2.98762e-08
1.74308e-05
2.1411e-08
1.74405e-05
1.50424e-08
1.01747e-08
1.74504e-05
1.83622e-05
2.7033e-08
1.83434e-05
6.36377e-08
1.83425e-05
1.30006e-07
1.83253e-05
1.59792e-07
1.83033e-05
1.49566e-07
1.82907e-05
1.64312e-07
1.82806e-05
1.88795e-07
1.82664e-05
1.84943e-07
1.82525e-05
1.63631e-07
1.82431e-05
1.4354e-07
1.82374e-05
1.27327e-07
1.82339e-05
1.1041e-07
1.82313e-05
9.32594e-08
1.82313e-05
7.23925e-08
1.82342e-05
5.25686e-08
1.824e-05
3.53334e-08
1.8248e-05
2.18268e-08
1.82577e-05
1.16883e-08
1.82685e-05
4.27322e-09
-1.0274e-09
1.82797e-05
1.92408e-05
3.26689e-08
1.92304e-05
7.40234e-08
1.92173e-05
1.43082e-07
1.92012e-05
1.7584e-07
1.91779e-05
1.72874e-07
1.91625e-05
1.79792e-07
1.91511e-05
2.00174e-07
1.91367e-05
1.99296e-07
1.91215e-05
1.78824e-07
1.91101e-05
1.54996e-07
1.91026e-05
1.34775e-07