/*--------------------------------*- C++ -*----------------------------------*\
| =========                 |                                                 |
| \\      /  F ield         | OpenFOAM: The Open Source CFD Toolbox           |
|  \\    /   O peration     | Version:  v2012                                 |
|   \\  /    A nd           | Website:  www.openfoam.com                      |
|    \\/     M anipulation  |                                                 |
\*---------------------------------------------------------------------------*/
FoamFile
{
    version     2.0;
    format      ascii;
    class       volVectorField;
    location    "4.05";
    object      U;
}
// * * * * * * * * * * * * * * * * * * * * * * * * * * * * * * * * * * * * * //

dimensions      [0 1 -1 0 0 0 0];


internalField   nonuniform List<vector> 
17600
(
(0.823229 -0.000823069 0)
(1.17966 0.00368702 0)
(0.842386 0.000984618 0)
(1.16014 -0.000538912 0)
(0.838251 3.43089e-05 0)
(1.14035 -0.000736452 0)
(0.845827 0.000793947 0)
(1.1239 -0.000644169 0)
(0.85416 0.000720515 0)
(1.11054 -0.000473851 0)
(0.86168 0.00114104 0)
(1.09975 -0.000624662 0)
(0.866746 0.00175531 0)
(1.09263 -0.00154639 0)
(0.867144 0.00272086 0)
(1.08786 -0.003099 0)
(0.859287 0.00391918 0)
(1.08561 -0.00413448 0)
(0.840402 0.00419944 0)
(1.08361 -0.00362158 0)
(0.83337 -0.000941335 0)
(1.1684 0.00371195 0)
(0.857067 0.000944272 0)
(1.14649 -0.0003099 0)
(0.85495 -1.13353e-05 0)
(1.12409 -0.000585939 0)
(0.864744 0.000743281 0)
(1.10458 -0.000510479 0)
(0.876494 0.000658241 0)
(1.08737 -0.000331573 0)
(0.889048 0.00106711 0)
(1.07076 -0.000476648 0)
(0.901866 0.00167353 0)
(1.05453 -0.00139353 0)
(0.914357 0.00270102 0)
(1.03525 -0.00301464 0)
(0.925879 0.00420842 0)
(1.00994 -0.00453386 0)
(0.938865 0.00568644 0)
(0.971431 -0.00527649 0)
(0.853566 -0.00104553 0)
(1.14479 0.00371502 0)
(0.883313 0.000948924 0)
(1.12124 -0.000104027 0)
(0.88485 9.36891e-06 0)
(1.09529 -0.000477372 0)
(0.897366 0.000757367 0)
(1.07257 -0.000454362 0)
(0.912384 0.000694289 0)
(1.05225 -0.000324061 0)
(0.928208 0.00113982 0)
(1.03282 -0.000530478 0)
(0.943825 0.00179219 0)
(1.01531 -0.00146979 0)
(0.95737 0.00287588 0)
(0.998621 -0.00299262 0)
(0.966214 0.00432806 0)
(0.983546 -0.0041218 0)
(0.969759 0.00560885 0)
(0.96869 -0.00334859 0)
(0.8812 -0.00109204 0)
(1.11204 0.00363759 0)
(0.914901 0.0010045 0)
(1.08964 4.08964e-06 0)
(0.9196 0.000119706 0)
(1.06211 -0.00046607 0)
(0.932417 0.000873017 0)
(1.03964 -0.000513182 0)
(0.946721 0.000841856 0)
(1.02128 -0.000437316 0)
(0.959819 0.00132145 0)
(1.00612 -0.00069123 0)
(0.970645 0.00198979 0)
(0.995721 -0.00161189 0)
(0.977659 0.00307683 0)
(0.98847 -0.00301669 0)
(0.97936 0.00445252 0)
(0.983359 -0.00385025 0)
(0.976719 0.00550784 0)
(0.976515 -0.00176491 0)
(0.911665 -0.00107856 0)
(1.07635 0.00348638 0)
(0.945006 0.00108365 0)
(1.0588 3.99305e-05 0)
(0.950611 0.000289761 0)
(1.03347 -0.000503844 0)
(0.960419 0.00103107 0)
(1.01545 -0.000605762 0)
(0.970423 0.00100317 0)
(1.00299 -0.000542429 0)
(0.977851 0.00146947 0)
(0.994593 -0.000795883 0)
(0.98291 0.00209489 0)
(0.990817 -0.00166248 0)
(0.985343 0.00314033 0)
(0.988631 -0.00296607 0)
(0.984457 0.0044686 0)
(0.986177 -0.00362364 0)
(0.981071 0.0054937 0)
(0.980285 -0.000510971 0)
(0.940063 -0.00101304 0)
(1.04445 0.00330318 0)
(0.968754 0.00115401 0)
(1.03443 3.76646e-05 0)
(0.973089 0.000470197 0)
(1.01448 -0.000537613 0)
(0.978344 0.00116757 0)
(1.00262 -0.000671018 0)
(0.983552 0.00111463 0)
(0.996025 -0.000592286 0)
(0.986515 0.00154328 0)
(0.992335 -0.000836938 0)
(0.988451 0.00211419 0)
(0.991652 -0.00165941 0)
(0.989376 0.00311492 0)
(0.990973 -0.00286063 0)
(0.988149 0.00437703 0)
(0.989008 -0.00329869 0)
(0.984902 0.00542787 0)
(0.983609 0.000623461 0)
(0.962887 -0.000913414 0)
(1.02091 0.00312908 0)
(0.984602 0.0011897 0)
(1.01863 2.27441e-05 0)
(0.98684 0.000623076 0)
(1.005 -0.000545906 0)
(0.988329 0.00125807 0)
(0.998281 -0.000700888 0)
(0.990377 0.00117373 0)
(0.99538 -0.000605637 0)
(0.991215 0.00156967 0)
(0.99383 -0.000853922 0)
(0.99212 0.00209801 0)
(0.994141 -0.00164427 0)
(0.992758 0.00305939 0)
(0.99384 -0.00272666 0)
(0.991545 0.0042228 0)
(0.992056 -0.00285443 0)
(0.98841 0.00523319 0)
(0.987086 0.00176791 0)
(0.978861 -0.000803769 0)
(1.00671 0.00298738 0)
(0.993765 0.00118471 0)
(1.01014 7.37702e-06 0)
(0.994317 0.000733858 0)
(1.00187 -0.000534214 0)
(0.993887 0.00130924 0)
(0.998312 -0.000711035 0)
(0.994548 0.00120151 0)
(0.997185 -0.000606415 0)
(0.994769 0.00157556 0)
(0.996426 -0.00086475 0)
(0.995457 0.00206905 0)
(0.996999 -0.00162093 0)
(0.996023 0.00298715 0)
(0.996778 -0.00256601 0)
(0.99479 0.00403625 0)
(0.995058 -0.00234379 0)
(0.991735 0.00497245 0)
(0.990417 0.00286257 0)
(0.988666 -0.0007044 0)
(0.999957 0.00288105 0)
(0.998565 0.00115137 0)
(1.00628 -7.41407e-06 0)
(0.998227 0.000806229 0)
(1.00173 -0.000516962 0)
(0.997433 0.00133599 0)
(0.999835 -0.000714836 0)
(0.99772 0.00121436 0)
(0.999493 -0.000605239 0)
(0.997905 0.00157208 0)
(0.999056 -0.000871802 0)
(0.998555 0.00203176 0)
(0.99968 -0.00158357 0)
(0.999023 0.00289429 0)
(0.999429 -0.00236801 0)
(0.997707 0.00381552 0)
(0.997712 -0.00178818 0)
(0.994711 0.00469523 0)
(0.993365 0.00387245 0)
(0.994002 -0.00062529 0)
(0.997691 0.00280015 0)
(1.00103 0.00110776 0)
(1.00468 -2.44831e-05 0)
(1.00034 0.000850844 0)
(1.00244 -0.000505018 0)
(0.999964 0.00134889 0)
(1.00145 -0.000718024 0)
(1.00025 0.00121938 0)
(1.00151 -0.000604492 0)
(1.00053 0.00156145 0)
(1.00126 -0.000873724 0)
(1.00115 0.00198562 0)
(1.00187 -0.00152778 0)
(1.00148 0.00277834 0)
(1.00155 -0.00212905 0)
(1.00005 0.0035616 0)
(0.999815 -0.00119383 0)
(0.997113 0.00442518 0)
(0.995754 0.00475957 0)
(0.996631 -0.000566951 0)
(0.997461 0.00273217 0)
(1.00239 0.00106705 0)
(1.004 -4.51685e-05 0)
(1.00153 0.000877821 0)
(1.00311 -0.000502585 0)
(1.00174 0.00135298 0)
(1.00266 -0.000721945 0)
(1.00212 0.00121858 0)
(1.00298 -0.000603603 0)
(1.00248 0.00154274 0)
(1.00286 -0.000867475 0)
(1.00304 0.00192679 0)
(1.00345 -0.00144769 0)
(1.00323 0.00263622 0)
(1.00306 -0.00185123 0)
(1.00171 0.00328618 0)
(1.0013 -0.000579134 0)
(0.998862 0.00418612 0)
(0.997515 0.00550308 0)
(0.997853 -0.000525046 0)
(0.997851 0.00266828 0)
(1.0032 0.0010346 0)
(1.00365 -6.86266e-05 0)
(1.00216 0.000894549 0)
(1.00351 -0.000509154 0)
(1.00287 0.00135026 0)
(1.00343 -0.000726263 0)
(1.00334 0.00121208 0)
(1.00393 -0.000600922 0)
(1.00376 0.00151424 0)
(1.0039 -0.000849605 0)
(1.00427 0.00185076 0)
(1.00447 -0.00133881 0)
(1.00434 0.00246547 0)
(1.00401 -0.00153661 0)
(1.00275 0.00299769 0)
(1.00223 3.35003e-05 0)
(1.00004 0.00401196 0)
(0.998719 0.00610114 0)
(0.998421 -0.000494554 0)
(0.998276 0.00260437 0)
(1.0037 0.00101028 0)
(1.00345 -9.3446e-05 0)
(1.00248 0.000905703 0)
(1.0037 -0.000522342 0)
(1.00351 0.00134173 0)
(1.00385 -0.000729933 0)
(1.00406 0.00119904 0)
(1.00449 -0.000594149 0)
(1.00451 0.00147396 0)
(1.00452 -0.000817299 0)
(1.00497 0.00175528 0)
(1.00507 -0.00120309 0)
(1.00496 0.00227277 0)
(1.00455 -0.00119764 0)
(1.00334 0.0027116 0)
(1.00277 0.000628283 0)
(1.0008 0.00392747 0)
(0.999517 0.00655914 0)
(0.998706 -0.000471666 0)
(0.998583 0.00253939 0)
(1.004 0.000991773 0)
(1.00332 -0.000118751 0)
(1.00262 0.000913701 0)
(1.00376 -0.0005396 0)
(1.00385 0.00132792 0)
(1.00407 -0.000731394 0)
(1.00445 0.00117813 0)
(1.0048 -0.000580786 0)
(1.00491 0.0014195 0)
(1.00487 -0.000767833 0)
(1.00534 0.0016392 0)
(1.0054 -0.00104468 0)
(1.00528 0.00206686 0)
(1.00483 -0.000853253 0)
(1.00368 0.00245999 0)
(1.00307 0.00117378 0)
(1.00131 0.00392658 0)
(1.00007 0.00688763 0)
(0.998868 -0.000453969 0)
(0.998776 0.00247362 0)
(1.00418 0.000976479 0)
(1.00324 -0.000144041 0)
(1.00267 0.000919349 0)
(1.00377 -0.000558605 0)
(1.00402 0.00130855 0)
(1.00417 -0.000728779 0)
(1.00465 0.00114789 0)
(1.00496 -0.000558113 0)
(1.00512 0.00134838 0)
(1.00506 -0.000699974 0)
(1.00553 0.00150386 0)
(1.00558 -0.000867986 0)
(1.00544 0.00185293 0)
(1.00498 -0.00051423 0)
(1.00389 0.00226253 0)
(1.00325 0.00164274 0)
(1.0017 0.00399823 0)
(1.0005 0.00711819 0)
(0.998976 -0.00044009 0)
(0.998888 0.00240789 0)
(1.00428 0.000961932 0)
(1.00319 -0.000168829 0)
(1.0027 0.000922698 0)
(1.00376 -0.000577108 0)
(1.0041 0.00128272 0)
(1.00421 -0.000719848 0)
(1.00476 0.00110586 0)
(1.00505 -0.000522355 0)
(1.00523 0.00125843 0)
(1.00515 -0.000614136 0)
(1.00563 0.00135203 0)
(1.00567 -0.000680126 0)
(1.00554 0.00164402 0)
(1.00506 -0.000194243 0)
(1.00404 0.00211961 0)
(1.00338 0.00204256 0)
(1.00203 0.00413498 0)
(1.00088 0.00728705 0)
(0.999061 -0.000429316 0)
(0.998946 0.00234319 0)
(1.00433 0.000946389 0)
(1.00314 -0.000193317 0)
(1.00271 0.000922717 0)
(1.00375 -0.000592891 0)
(1.00414 0.00124865 0)
(1.00422 -0.000701434 0)
(1.00482 0.00104913 0)
(1.00508 -0.0004726 0)
(1.00529 0.00115207 0)
(1.0052 -0.000514351 0)
(1.00569 0.00118846 0)
(1.00572 -0.000487827 0)
(1.0056 0.00144838 0)
(1.00511 0.000102175 0)
(1.00418 0.00204138 0)
(1.00351 0.00238959 0)
(1.00234 0.00431516 0)
(1.00124 0.00741703 0)
(0.999136 -0.000421357 0)
(0.998972 0.00228058 0)
(1.00435 0.000928047 0)
(1.00311 -0.000216749 0)
(1.00272 0.000918061 0)
(1.00373 -0.000604044 0)
(1.00416 0.00120488 0)
(1.00421 -0.000672289 0)
(1.00485 0.00097868 0)
(1.00509 -0.000412034 0)
(1.00532 0.0010319 0)
(1.00522 -0.00040504 0)
(1.00572 0.00102189 0)
(1.00575 -0.000305923 0)
(1.00565 0.00128111 0)
(1.00515 0.000367745 0)
(1.00431 0.00202501 0)
(1.00364 0.00269045 0)
(1.00265 0.00451214 0)
(1.0016 0.00751941 0)
(0.99921 -0.000416074 0)
(0.998979 0.00222111 0)
(1.00435 0.000904961 0)
(1.00307 -0.000237506 0)
(1.00272 0.000907589 0)
(1.0037 -0.000608719 0)
(1.00417 0.00114971 0)
(1.00419 -0.000631107 0)
(1.00488 0.000893668 0)
(1.00509 -0.000338645 0)
(1.00535 0.000897001 0)
(1.00521 -0.000290603 0)
(1.00574 0.000859325 0)
(1.00576 -0.000146428 0)
(1.0057 0.00115568 0)
(1.00519 0.000589722 0)
(1.00445 0.00205193 0)
(1.00379 0.00295258 0)
(1.00295 0.00471186 0)
(1.00196 0.00760292 0)
(0.999283 -0.000413679 0)
(0.998978 0.00216603 0)
(1.00435 0.000875687 0)
(1.00304 -0.000254565 0)
(1.00272 0.000888455 0)
(1.00367 -0.000603506 0)
(1.00418 0.00108039 0)
(1.00416 -0.000575941 0)
(1.0049 0.000792219 0)
(1.00507 -0.000253565 0)
(1.00536 0.000752696 0)
(1.0052 -0.000178822 0)
(1.00576 0.000706116 0)
(1.00577 -1.10134e-05 0)
(1.00574 0.00106483 0)
(1.00524 0.000773615 0)
(1.00459 0.00211451 0)
(1.00395 0.00319517 0)
(1.00326 0.00491353 0)
(1.00232 0.00767531 0)
(0.999355 -0.000414647 0)
(0.998976 0.0021168 0)
(1.00433 0.000838037 0)
(1.00301 -0.000265752 0)
(1.00272 0.000857823 0)
(1.00365 -0.00058746 0)
(1.00419 0.000997639 0)
(1.00413 -0.000508502 0)
(1.00492 0.000677235 0)
(1.00505 -0.00016522 0)
(1.00537 0.000608832 0)
(1.00519 -7.9875e-05 0)
(1.00578 0.000570761 0)
(1.00578 9.49876e-05 0)
(1.00579 0.00100407 0)
(1.0053 0.000934973 0)
(1.00474 0.0022047 0)
(1.00412 0.00343143 0)
(1.00357 0.00511894 0)
(1.00269 0.00774374 0)
(0.999421 -0.000418585 0)
(0.998977 0.00207358 0)
(1.00431 0.000790387 0)
(1.00298 -0.000269773 0)
(1.00272 0.000816139 0)
(1.00362 -0.00056213 0)
(1.00419 0.000902544 0)
(1.0041 -0.00042974 0)
(1.00493 0.000552307 0)
(1.00504 -7.95278e-05 0)
(1.00538 0.000472855 0)
(1.00518 -2.96293e-06 0)
(1.0058 0.000459946 0)
(1.0058 0.000170457 0)
(1.00584 0.000966343 0)
(1.00536 0.00108303 0)
(1.0049 0.00231218 0)
(1.00431 0.00366769 0)
(1.00388 0.0053304 0)
(1.00306 0.00781557 0)
(0.999481 -0.000425802 0)
(0.998986 0.00203847 0)
(1.00427 0.000731283 0)
(1.00296 -0.0002653 0)
(1.00271 0.000762226 0)
(1.0036 -0.000525748 0)
(1.00419 0.000793951 0)
(1.00408 -0.000342557 0)
(1.00494 0.000425535 0)
(1.00502 -4.07957e-06 0)
(1.00539 0.000349758 0)
(1.00517 4.8596e-05 0)
(1.00581 0.000373061 0)
(1.00582 0.000224071 0)
(1.0059 0.000938207 0)
(1.00544 0.00121667 0)
(1.00507 0.00242007 0)
(1.00452 0.00390355 0)
(1.00419 0.005546 0)
(1.00343 0.00789925 0)
(0.99953 -0.000438717 0)
(0.999004 0.00201591 0)
(1.00423 0.000657036 0)
(1.00295 -0.000250017 0)
(1.00269 0.000692292 0)
(1.00359 -0.000475962 0)
(1.00419 0.000671843 0)
(1.00405 -0.000250176 0)
(1.00495 0.000299962 0)
(1.00501 5.90091e-05 0)
(1.00539 0.000245313 0)
(1.00517 7.99536e-05 0)
(1.00582 0.000300301 0)
(1.00585 0.000261734 0)
(1.00596 0.000914235 0)
(1.00554 0.00133177 0)
(1.00526 0.00251159 0)
(1.00475 0.00412769 0)
(1.0045 0.00576977 0)
(1.0038 0.00802212 0)
(0.999566 -0.000454161 0)
(0.999035 0.0020008 0)
(1.00417 0.0005695 0)
(1.00294 -0.000229458 0)
(1.00267 0.000613652 0)
(1.00358 -0.00042331 0)
(1.00417 0.00055195 0)
(1.00404 -0.000171091 0)
(1.00494 0.000196584 0)
(1.00501 9.25901e-05 0)
(1.00538 0.000172876 0)
(1.00517 7.37929e-05 0)
(1.00582 0.000254626 0)
(1.00589 0.000254504 0)
(1.00602 0.00091666 0)
(1.00565 0.00138975 0)
(1.00545 0.00257242 0)
(1.005 0.00423172 0)
(1.00482 0.00597866 0)
(1.00418 0.0081874 0)
(0.999589 -0.000473027 0)
(0.999076 0.0019961 0)
(1.0041 0.000466279 0)
(1.00295 -0.000200369 0)
(1.00263 0.000524473 0)
(1.00358 -0.00036717 0)
(1.00415 0.000431044 0)
(1.00403 -0.000103585 0)
(1.00493 0.000109046 0)
(1.00501 0.000103625 0)
(1.00536 0.000117935 0)
(1.00518 4.76496e-05 0)
(1.00582 0.00021458 0)
(1.00593 0.000235126 0)
(1.00608 0.000903393 0)
(1.00577 0.00142449 0)
(1.00566 0.00255449 0)
(1.00528 0.00422385 0)
(1.00517 0.00602003 0)
(1.00458 0.00817886 0)
(0.999601 -0.000499358 0)
(0.999126 0.00200904 0)
(1.00402 0.000346655 0)
(1.00297 -0.000164394 0)
(1.00258 0.00042717 0)
(1.00358 -0.000312673 0)
(1.00412 0.000321673 0)
(1.00402 -5.87075e-05 0)
(1.00491 4.28177e-05 0)
(1.00502 8.43396e-05 0)
(1.00534 8.09146e-05 0)
(1.0052 1.27368e-05 0)
(1.00581 0.000172451 0)
(1.00598 0.000215971 0)
(1.00615 0.000831994 0)
(1.00589 0.00146302 0)
(1.00586 0.0025864 0)
(1.00557 0.00427871 0)
(1.00551 0.0060769 0)
(1.005 0.00821274 0)
(0.999604 -0.000526539 0)
(0.999181 0.00203022 0)
(1.00392 0.000221654 0)
(1.00298 -0.000131019 0)
(1.00252 0.000331519 0)
(1.00358 -0.000272655 0)
(1.00408 0.000234496 0)
(1.00402 -4.08399e-05 0)
(1.00488 8.49123e-09 0)
(1.00503 4.20583e-05 0)
(1.00531 4.48474e-05 0)
(1.00521 -1.85424e-05 0)
(1.0058 0.000120469 0)
(1.00603 0.000224139 0)
(1.00622 0.000888983 0)
(1.00604 0.00161041 0)
(1.00607 0.00278601 0)
(1.00588 0.00443558 0)
(1.00586 0.00626155 0)
(1.00544 0.00831408 0)
(0.999605 -0.000559448 0)
(0.999235 0.00206564 0)
(1.00382 7.89965e-05 0)
(1.003 -9.87521e-05 0)
(1.00247 0.000241252 0)
(1.00359 -0.000253205 0)
(1.00404 0.000167041 0)
(1.00402 -4.22555e-05 0)
(1.00484 -3.24566e-05 0)
(1.00503 8.61803e-06 0)
(1.00527 2.5237e-06 0)
(1.00522 -1.43367e-05 0)
(1.0058 0.000148686 0)
(1.0061 0.000350038 0)
(1.00631 0.00108371 0)
(1.00619 0.00186742 0)
(1.00629 0.00300101 0)
(1.0062 0.00459961 0)
(1.00623 0.00641746 0)
(1.00587 0.00839894 0)
(0.999606 -0.000596335 0)
(0.999282 0.00211098 0)
(1.00372 -7.27686e-05 0)
(1.00302 -7.64887e-05 0)
(1.0024 0.00016464 0)
(1.00359 -0.000263716 0)
(1.004 0.000125315 0)
(1.00401 -6.8613e-05 0)
(1.00481 -4.65042e-05 0)
(1.00504 -2.3276e-05 0)
(1.00524 -1.33201e-05 0)
(1.00524 5.22282e-05 0)
(1.0058 0.000283286 0)
(1.00617 0.000515855 0)
(1.0064 0.00124436 0)
(1.00635 0.00208424 0)
(1.00651 0.00316299 0)
(1.00653 0.00469435 0)
(1.0066 0.00647673 0)
(1.0063 0.00839419 0)
(0.999613 -0.000633026 0)
(0.999318 0.00215587 0)
(1.00361 -0.000215272 0)
(1.00303 -7.48635e-05 0)
(1.00234 0.0001076 0)
(1.00358 -0.000301456 0)
(1.00396 9.69838e-05 0)
(1.004 -8.91045e-05 0)
(1.00477 -7.06544e-05 0)
(1.00504 -6.05607e-06 0)
(1.00522 2.1136e-05 0)
(1.00526 0.000169561 0)
(1.00581 0.000423475 0)
(1.00625 0.000655225 0)
(1.00651 0.00136317 0)
(1.00652 0.00226464 0)
(1.00673 0.00332364 0)
(1.00686 0.00477181 0)
(1.00698 0.00649232 0)
(1.00673 0.0083409 0)
(0.999627 -0.000672799 0)
(0.999342 0.00220361 0)
(1.0035 -0.000347691 0)
(1.00304 -0.000106595 0)
(1.00228 7.64331e-05 0)
(1.00357 -0.000369252 0)
(1.00392 8.26462e-05 0)
(1.00398 -9.60163e-05 0)
(1.00474 -9.16591e-05 0)
(1.00504 7.77483e-05 0)
(1.00521 0.000108671 0)
(1.00529 0.000284098 0)
(1.00582 0.000563904 0)
(1.00631 0.000795512 0)
(1.00662 0.00145637 0)
(1.0067 0.00241738 0)
(1.00695 0.00348538 0)
(1.00718 0.00485637 0)
(1.00737 0.00648135 0)
(1.00716 0.00824309 0)
(0.999649 -0.000712279 0)
(0.999353 0.0022472 0)
(1.0034 -0.000453673 0)
(1.00304 -0.00018035 0)
(1.00222 6.69793e-05 0)
(1.00355 -0.000455836 0)
(1.00389 6.42633e-05 0)
(1.00396 -8.15473e-05 0)
(1.00472 -7.82214e-05 0)
(1.00505 0.000195711 0)
(1.00519 0.000210788 0)
(1.00531 0.000382668 0)
(1.00584 0.000692185 0)
(1.00638 0.000942725 0)
(1.00674 0.00154455 0)
(1.00688 0.00253393 0)
(1.00718 0.00362506 0)
(1.00749 0.00493911 0)
(1.00775 0.00645132 0)
(1.00758 0.00810591 0)
(0.999678 -0.000749075 0)
(0.999352 0.00227945 0)
(1.00328 -0.000524646 0)
(1.00304 -0.000291117 0)
(1.00216 7.82206e-05 0)
(1.00353 -0.00054967 0)
(1.00387 4.42342e-05 0)
(1.00393 -2.31869e-05 0)
(1.00471 -1.69037e-05 0)
(1.00505 0.000334301 0)
(1.00518 0.000328566 0)
(1.00533 0.000461491 0)
(1.00586 0.000807212 0)
(1.00644 0.00109598 0)
(1.00687 0.0016485 0)
(1.00708 0.00262092 0)
(1.00742 0.00373864 0)
(1.0078 0.00501347 0)
(1.00812 0.00641492 0)
(1.008 0.00794634 0)
(0.999711 -0.000785609 0)
(0.99934 0.00230043 0)
(1.00316 -0.000551138 0)
(1.00303 -0.000436224 0)
(1.0021 9.12397e-05 0)
(1.00349 -0.000634039 0)
(1.00386 2.51973e-05 0)
(1.00391 0.000101665 0)
(1.0047 6.68886e-05 0)
(1.00505 0.000464457 0)
(1.00516 0.000466477 0)
(1.00536 0.000534258 0)
(1.0059 0.000907986 0)
(1.00651 0.00125176 0)
(1.007 0.00176962 0)
(1.00728 0.00268917 0)
(1.00767 0.00381786 0)
(1.00811 0.00506378 0)
(1.00847 0.0063707 0)
(1.00839 0.00777509 0)
(0.999748 -0.000817019 0)
(0.999323 0.00229727 0)
(1.00303 -0.000529311 0)
(1.00302 -0.000607874 0)
(1.00205 0.000109724 0)
(1.00346 -0.00070118 0)
(1.00386 2.10473e-05 0)
(1.00388 0.000256414 0)
(1.00469 0.0001372 0)
(1.00506 0.000553475 0)
(1.00515 0.000607783 0)
(1.00537 0.000612313 0)
(1.00595 0.000995808 0)
(1.00658 0.00140624 0)
(1.00712 0.0018984 0)
(1.00749 0.00274553 0)
(1.00793 0.00385442 0)
(1.00842 0.00507867 0)
(1.00882 0.00631566 0)
(1.00878 0.00760359 0)
(0.999785 -0.000840781 0)
(0.999302 0.00226288 0)
(1.00289 -0.000475178 0)
(1.00301 -0.000776287 0)
(1.00199 0.000140158 0)
(1.00342 -0.000727522 0)
(1.00387 2.33774e-05 0)
(1.00386 0.000400757 0)
(1.00468 0.000201149 0)
(1.00507 0.000610685 0)
(1.00513 0.000750872 0)
(1.00539 0.000707266 0)
(1.006 0.00106652 0)
(1.00665 0.00154585 0)
(1.00724 0.00203349 0)
(1.00769 0.00280466 0)
(1.0082 0.00386266 0)
(1.00872 0.00506449 0)
(1.00916 0.00625282 0)
(1.00914 0.00744134 0)
(0.999823 -0.000861223 0)
(0.999282 0.00220158 0)
(1.00274 -0.000394132 0)
(1.00299 -0.000922693 0)
(1.00195 0.0001694 0)
(1.00337 -0.000697704 0)
(1.0039 1.02463e-05 0)
(1.00383 0.000543733 0)
(1.00466 0.000282405 0)
(1.00508 0.000654638 0)
(1.00512 0.000896026 0)
(1.00539 0.000828292 0)
(1.00606 0.00112388 0)
(1.00674 0.00165885 0)
(1.00736 0.00217443 0)
(1.00789 0.00287654 0)
(1.00847 0.00385536 0)
(1.00904 0.0050196 0)
(1.0095 0.00617047 0)
(1.0095 0.00727848 0)
(0.999859 -0.000872443 0)
(0.999264 0.00210699 0)
(1.00258 -0.000291746 0)
(1.00297 -0.00103976 0)
(1.00191 0.000198819 0)
(1.00332 -0.000633169 0)
(1.00393 -1.16444e-05 0)
(1.00382 0.000682408 0)
(1.00463 0.000385401 0)
(1.0051 0.00068287 0)
(1.00511 0.00102877 0)
(1.00539 0.000972513 0)
(1.00613 0.00118118 0)
(1.00684 0.0017411 0)
(1.00749 0.00231197 0)
(1.00807 0.0029651 0)
(1.00874 0.00384609 0)
(1.00936 0.00494505 0)
(1.00983 0.00605682 0)
(1.00983 0.00710034 0)
(0.999893 -0.000876443 0)
(0.999251 0.00198286 0)
(1.00241 -0.000174406 0)
(1.00295 -0.00112153 0)
(1.00188 0.000228726 0)
(1.00327 -0.00053754 0)
(1.00397 -3.66034e-05 0)
(1.00381 0.000805649 0)
(1.0046 0.000509166 0)
(1.00513 0.000699583 0)
(1.00512 0.00113876 0)
(1.00539 0.00113538 0)
(1.00619 0.00125224 0)
(1.00695 0.00179605 0)
(1.00762 0.00242654 0)
(1.00825 0.00306538 0)
(1.00899 0.00385025 0)
(1.00968 0.00485625 0)
(1.01017 0.00591555 0)
(1.01017 0.00690429 0)
(0.999925 -0.000873997 0)
(0.999244 0.00183363 0)
(1.00224 -4.82731e-05 0)
(1.00293 -0.00117168 0)
(1.00186 0.000258706 0)
(1.00321 -0.000405304 0)
(1.00401 -5.1877e-05 0)
(1.00381 0.00091315 0)
(1.00456 0.000657362 0)
(1.00516 0.000719771 0)
(1.00514 0.00122156 0)
(1.00538 0.00130735 0)
(1.00624 0.00134634 0)
(1.00708 0.00183428 0)
(1.00777 0.00250648 0)
(1.00843 0.00316115 0)
(1.00923 0.00386959 0)
(1.00999 0.00476648 0)
(1.01051 0.00575373 0)
(1.01049 0.00669034 0)
(0.999954 -0.000862927 0)
(0.999246 0.00166843 0)
(1.00206 6.70128e-05 0)
(1.0029 -0.00119279 0)
(1.00186 0.000298889 0)
(1.00315 -0.000235618 0)
(1.00406 -5.23892e-05 0)
(1.00383 0.00099686 0)
(1.00452 0.00082388 0)
(1.00518 0.000752674 0)
(1.00518 0.00127671 0)
(1.00539 0.00147165 0)
(1.00628 0.00146398 0)
(1.00721 0.00186386 0)
(1.00794 0.00254658 0)
(1.00862 0.00322758 0)
(1.00946 0.00388483 0)
(1.01028 0.00467104 0)
(1.01084 0.00556782 0)
(1.01082 0.0064484 0)
(0.999981 -0.000849198 0)
(0.999255 0.00149413 0)
(1.00189 0.000160787 0)
(1.00288 -0.0011985 0)
(1.00187 0.000363858 0)
(1.00309 -1.40396e-05 0)
(1.00411 -2.73232e-05 0)
(1.00387 0.00105235 0)
(1.00447 0.00099829 0)
(1.0052 0.000804562 0)
(1.00524 0.00130848 0)
(1.0054 0.00162187 0)
(1.00631 0.00160737 0)
(1.00733 0.00190288 0)
(1.00812 0.00255707 0)
(1.00881 0.00326027 0)
(1.00968 0.00388974 0)
(1.01056 0.00457661 0)
(1.01117 0.00537095 0)
(1.01115 0.00618582 0)
(1 -0.000823728 0)
(0.999272 0.00129697 0)
(1.00172 0.000236539 0)
(1.00285 -0.00119094 0)
(1.0019 0.000444265 0)
(1.00302 0.000249058 0)
(1.00415 2.13418e-05 0)
(1.00393 0.00108094 0)
(1.00443 0.00116973 0)
(1.00521 0.000879906 0)
(1.00532 0.00131691 0)
(1.00543 0.00174351 0)
(1.00634 0.00176122 0)
(1.00745 0.00195503 0)
(1.00831 0.00254372 0)
(1.00902 0.00325526 0)
(1.0099 0.00387575 0)
(1.01082 0.00448402 0)
(1.01147 0.00517335 0)
(1.01146 0.00591059 0)
(1.00002 -0.000794477 0)
(0.999297 0.00110119 0)
(1.00156 0.000260494 0)
(1.00283 -0.00115551 0)
(1.00195 0.000555151 0)
(1.00296 0.000539398 0)
(1.00417 0.000110841 0)
(1.004 0.00109742 0)
(1.0044 0.00134171 0)
(1.00521 0.00099221 0)
(1.0054 0.00131976 0)
(1.00549 0.00183091 0)
(1.00636 0.00191535 0)
(1.00755 0.00202651 0)
(1.00851 0.00252341 0)
(1.00924 0.00322053 0)
(1.01012 0.00384153 0)
(1.01106 0.00439433 0)
(1.01176 0.00498437 0)
(1.01177 0.00563388 0)
(1.00004 -0.000748399 0)
(0.999327 0.000897908 0)
(1.00141 0.000314191 0)
(1.00283 -0.00109642 0)
(1.00203 0.000632852 0)
(1.00289 0.000825048 0)
(1.00418 0.00025314 0)
(1.00408 0.00111598 0)
(1.00438 0.00151469 0)
(1.0052 0.00115188 0)
(1.00549 0.00134411 0)
(1.00557 0.00189088 0)
(1.0064 0.00206224 0)
(1.00764 0.00211938 0)
(1.0087 0.00250823 0)
(1.00948 0.00315952 0)
(1.01034 0.0037769 0)
(1.01129 0.00429365 0)
(1.01203 0.00479712 0)
(1.01207 0.00535495 0)
(1.00005 -0.000686085 0)
(0.999368 0.000723164 0)
(1.00128 0.000469456 0)
(1.00282 -0.000983513 0)
(1.00213 0.000618686 0)
(1.00283 0.00104678 0)
(1.00418 0.000394019 0)
(1.00418 0.00109604 0)
(1.00437 0.00163405 0)
(1.00517 0.001313 0)
(1.00557 0.00137302 0)
(1.00568 0.0019081 0)
(1.00644 0.00217331 0)
(1.00771 0.0022177 0)
(1.00887 0.00250124 0)
(1.00972 0.00307884 0)
(1.01058 0.00367985 0)
(1.01151 0.00417503 0)
(1.01227 0.00461044 0)
(1.01234 0.00508075 0)
(1.00006 -0.000668585 0)
(0.999419 0.000678775 0)
(1.00115 0.000554064 0)
(1.0028 -0.000889856 0)
(1.00224 0.000546572 0)
(1.00279 0.00122453 0)
(1.00415 0.000565358 0)
(1.00427 0.00108632 0)
(1.00439 0.00173238 0)
(1.00514 0.00149479 0)
(1.00564 0.00143223 0)
(1.00579 0.00190139 0)
(1.0065 0.00223958 0)
(1.00777 0.00230151 0)
(1.00902 0.00249282 0)
(1.00994 0.00297362 0)
(1.01081 0.00353569 0)
(1.01173 0.00401258 0)
(1.01249 0.00439823 0)
(1.01258 0.00479169 0)
(1.00007 -0.00058784 0)
(0.99947 0.000520715 0)
(1.00101 0.000677622 0)
(1.00276 -0.000710539 0)
(1.00236 0.000535441 0)
(1.00276 0.0014096 0)
(1.0041 0.000786348 0)
(1.00436 0.00110871 0)
(1.00442 0.00181082 0)
(1.00509 0.00168943 0)
(1.00567 0.00153456 0)
(1.0059 0.00190152 0)
(1.00657 0.00228476 0)
(1.00782 0.00238809 0)
(1.00913 0.00251459 0)
(1.01014 0.00289153 0)
(1.01104 0.00339113 0)
(1.01194 0.0038416 0)
(1.01269 0.00418896 0)
(1.0128 0.00451727 0)
(1.00007 -0.000485984 0)
(0.999537 0.000333609 0)
(1.00093 0.000824134 0)
(1.00272 -0.000492814 0)
(1.00249 0.000533836 0)
(1.00275 0.00155726 0)
(1.00404 0.00102441 0)
(1.00444 0.00116284 0)
(1.00448 0.00187028 0)
(1.00506 0.00188101 0)
(1.00569 0.00167251 0)
(1.00601 0.00191938 0)
(1.00666 0.0023036 0)
(1.00787 0.00245108 0)
(1.00923 0.00253794 0)
(1.01032 0.00281606 0)
(1.01125 0.00323508 0)
(1.01214 0.00364524 0)
(1.01287 0.00395899 0)
(1.01299 0.00423425 0)
(1.00006 -0.00043671 0)
(0.999608 0.000317225 0)
(1.00084 0.000904856 0)
(1.00266 -0.000311726 0)
(1.00262 0.000506741 0)
(1.00276 0.00166335 0)
(1.00397 0.00127446 0)
(1.0045 0.00125008 0)
(1.00455 0.0019074 0)
(1.00503 0.00204217 0)
(1.00568 0.00181679 0)
(1.0061 0.00194299 0)
(1.00676 0.00228108 0)
(1.00792 0.00245761 0)
(1.0093 0.0025236 0)
(1.01047 0.00271827 0)
(1.01145 0.00305083 0)
(1.01233 0.00340792 0)
(1.01304 0.00368731 0)
(1.01315 0.00391875 0)
(1.00006 -0.000366996 0)
(0.99968 0.00031399 0)
(1.00076 0.00101623 0)
(1.00259 -9.17306e-05 0)
(1.00273 0.000503783 0)
(1.0028 0.00172799 0)
(1.00388 0.0015026 0)
(1.00452 0.00134352 0)
(1.00461 0.00190775 0)
(1.005 0.00215805 0)
(1.00565 0.00196836 0)
(1.00615 0.00199376 0)
(1.00684 0.00225861 0)
(1.00797 0.00244413 0)
(1.00936 0.00250118 0)
(1.01058 0.00263227 0)
(1.01161 0.00288168 0)
(1.0125 0.00317549 0)
(1.01319 0.00341322 0)
(1.01329 0.00360214 0)
(1.00005 -0.000280762 0)
(0.999753 0.000276182 0)
(1.00069 0.00107989 0)
(1.00249 0.000138923 0)
(1.00284 0.000536424 0)
(1.00285 0.00178726 0)
(1.00379 0.00175707 0)
(1.00452 0.00151174 0)
(1.00468 0.00194589 0)
(1.00499 0.00226998 0)
(1.0056 0.00214361 0)
(1.00617 0.00207933 0)
(1.0069 0.00224318 0)
(1.00801 0.0024014 0)
(1.00939 0.0024447 0)
(1.01065 0.00252393 0)
(1.01173 0.00269635 0)
(1.01263 0.00292247 0)
(1.01331 0.00311242 0)
(1.0134 0.00325891 0)
(1.00005 -0.000184991 0)
(0.999825 0.000215721 0)
(1.00064 0.001128 0)
(1.0024 0.000418761 0)
(1.00293 0.00064435 0)
(1.00292 0.0018597 0)
(1.00371 0.00201814 0)
(1.00448 0.00172157 0)
(1.00473 0.00200212 0)
(1.00499 0.00234239 0)
(1.00554 0.00229864 0)
(1.00615 0.00217908 0)
(1.00693 0.00223937 0)
(1.00803 0.00234228 0)
(1.0094 0.00236671 0)
(1.0107 0.00240049 0)
(1.01181 0.00250535 0)
(1.01273 0.00266265 0)
(1.0134 0.0028004 0)
(1.01348 0.00290227 0)
(1.00004 -0.000107709 0)
(0.999897 0.000211288 0)
(1.00062 0.0012013 0)
(1.0023 0.000697866 0)
(1.00301 0.000778739 0)
(1.00301 0.00190222 0)
(1.00364 0.0022421 0)
(1.00442 0.00195125 0)
(1.00476 0.00208959 0)
(1.005 0.00240051 0)
(1.00548 0.00243641 0)
(1.0061 0.00230103 0)
(1.00692 0.00226622 0)
(1.00803 0.002288 0)
(1.00938 0.00227581 0)
(1.0107 0.00225827 0)
(1.01185 0.00229949 0)
(1.0128 0.00238487 0)
(1.01346 0.00246597 0)
(1.01352 0.00252039 0)
(1.00003 -3.62475e-05 0)
(0.999968 0.000253092 0)
(1.00061 0.00125857 0)
(1.0022 0.000966802 0)
(1.00305 0.000941404 0)
(1.00311 0.00195175 0)
(1.00359 0.00244059 0)
(1.00433 0.00221251 0)
(1.00475 0.00221813 0)
(1.005 0.00246236 0)
(1.00542 0.00253914 0)
(1.00602 0.00241703 0)
(1.00686 0.00230317 0)
(1.00798 0.00223723 0)
(1.00933 0.00216588 0)
(1.01067 0.00209494 0)
(1.01185 0.00207163 0)
(1.01281 0.00208938 0)
(1.01346 0.002112 0)
(1.01352 0.00211916 0)
(1.00002 4.7949e-05 0)
(1.00003 0.000306253 0)
(1.00062 0.00130022 0)
(1.0021 0.001226 0)
(1.00308 0.00114112 0)
(1.0032 0.00201846 0)
(1.00355 0.00261136 0)
(1.00422 0.00248222 0)
(1.00471 0.00238747 0)
(1.00498 0.00253797 0)
(1.00535 0.0026179 0)
(1.00591 0.00251671 0)
(1.00675 0.00234662 0)
(1.00788 0.00219372 0)
(1.00924 0.002042 0)
(1.01059 0.00190661 0)
(1.01179 0.00181065 0)
(1.01277 0.00175974 0)
(1.01342 0.00172104 0)
(1.01348 0.00167888 0)
(1.00001 0.000104173 0)
(1.00008 0.00042026 0)
(1.00064 0.00137196 0)
(1.00201 0.00148255 0)
(1.00307 0.00139178 0)
(1.00329 0.00211895 0)
(1.00353 0.00277918 0)
(1.0041 0.00275744 0)
(1.00462 0.00261004 0)
(1.00493 0.00265065 0)
(1.00527 0.00270365 0)
(1.00578 0.00260967 0)
(1.00659 0.00240814 0)
(1.00772 0.00217264 0)
(1.00908 0.00193347 0)
(1.01044 0.00171744 0)
(1.01167 0.00154575 0)
(1.01266 0.00142298 0)
(1.01333 0.00132278 0)
(1.01337 0.0012294 0)
(1 0.000180902 0)
(1.00013 0.00049567 0)
(1.00066 0.00143621 0)
(1.00193 0.00173044 0)
(1.00304 0.00167404 0)
(1.00336 0.00225493 0)
(1.00352 0.00293828 0)
(1.00397 0.00302546 0)
(1.00449 0.00286359 0)
(1.00484 0.00280636 0)
(1.00516 0.00280435 0)
(1.00562 0.00269887 0)
(1.00639 0.00247204 0)
(1.0075 0.00216536 0)
(1.00885 0.00183416 0)
(1.01023 0.00152407 0)
(1.01148 0.00126818 0)
(1.01249 0.00106565 0)
(1.01316 0.000901007 0)
(1.01321 0.00074973 0)
(0.999996 0.00025657 0)
(1.00017 0.000579227 0)
(1.00071 0.00151003 0)
(1.00186 0.00196998 0)
(1.00299 0.00197836 0)
(1.00341 0.00242816 0)
(1.00353 0.00309905 0)
(1.00385 0.00328897 0)
(1.00433 0.00314591 0)
(1.0047 0.00300527 0)
(1.00502 0.00292832 0)
(1.00544 0.00278554 0)
(1.00615 0.002525 0)
(1.00721 0.00215025 0)
(1.00854 0.00172731 0)
(1.00993 0.00131267 0)
(1.0112 0.000959001 0)
(1.01224 0.000666819 0)
(1.01292 0.00042521 0)
(1.01298 0.000216986 0)
(0.999992 0.000301794 0)
(1.0002 0.000748407 0)
(1.00075 0.00161891 0)
(1.0018 0.00220254 0)
(1.00292 0.00230024 0)
(1.00343 0.00265363 0)
(1.00353 0.00327729 0)
(1.00374 0.0035582 0)
(1.00414 0.00345143 0)
(1.00451 0.00325323 0)
(1.00483 0.00308888 0)
(1.0052 0.00289194 0)
(1.00585 0.00258714 0)
(1.00684 0.00214883 0)
(1.00814 0.00163448 0)
(1.00952 0.00111008 0)
(1.01082 0.000641666 0)
(1.01189 0.000248805 0)
(1.01259 -8.45285e-05 0)
(1.01267 -0.000369928 0)
(0.99999 0.000348381 0)
(1.00022 0.000924865 0)
(1.00079 0.00174615 0)
(1.00175 0.00242232 0)
(1.00283 0.0026335 0)
(1.00341 0.00292236 0)
(1.00352 0.00348839 0)
(1.00362 0.00382928 0)
(1.00392 0.0037878 0)
(1.00427 0.00355068 0)
(1.00458 0.00331129 0)
(1.00492 0.00303884 0)
(1.00548 0.00267601 0)