/*--------------------------------*- C++ -*----------------------------------*\
| =========                 |                                                 |
| \\      /  F ield         | OpenFOAM: The Open Source CFD Toolbox           |
|  \\    /   O peration     | Version:  v2012                                 |
|   \\  /    A nd           | Website:  www.openfoam.com                      |
|    \\/     M anipulation  |                                                 |
\*---------------------------------------------------------------------------*/
FoamFile
{
    version     2.0;
    format      ascii;
    class       volScalarField;
    location    "1.95";
    object      p;
}
// * * * * * * * * * * * * * * * * * * * * * * * * * * * * * * * * * * * * * //

dimensions      [0 2 -2 0 0 0 0];


internalField   nonuniform List<scalar> 
17600
(
7.25491e-11
-0.000874399
-0.000628384
-0.00141678
-0.00142986
-0.00294091
-0.00309433
-0.0040726
-0.00447259
-0.00488885
-0.00568449
-0.00556134
-0.00587545
-0.00564343
-0.00558812
-0.00510321
-0.00440437
-0.00289863
-0.00102031
0.00264822
2.38038e-07
-0.000874808
-0.000628133
-0.00141833
-0.00142885
-0.00294443
-0.00309248
-0.00407643
-0.00447033
-0.00489229
-0.0056817
-0.00556506
-0.00587187
-0.00565054
-0.00558385
-0.0051208
-0.00439618
-0.00295463
-0.00100754
0.0023543
3.29718e-07
-0.000875609
-0.000628328
-0.00142071
-0.00142863
-0.00294951
-0.00308983
-0.00408235
-0.00446579
-0.00489716
-0.0056768
-0.00557032
-0.00586662
-0.0056608
-0.00557879
-0.00514265
-0.004388
-0.00301793
-0.00100949
0.00194649
-5.76316e-08
-0.000876794
-0.000629284
-0.00142389
-0.00143003
-0.00295571
-0.00308794
-0.00408891
-0.00446049
-0.00490186
-0.00567099
-0.00557523
-0.00586179
-0.00567204
-0.00557474
-0.0051655
-0.00438294
-0.00308076
-0.00104168
0.00154432
-9.78873e-07
-0.000878408
-0.000630905
-0.00142804
-0.00143251
-0.00296326
-0.00308633
-0.00409554
-0.00445459
-0.00490592
-0.00566438
-0.00558026
-0.005857
-0.00568462
-0.00557052
-0.00519055
-0.00437975
-0.00314648
-0.00110568
0.00116322
-2.4067e-06
-0.000880424
-0.000632977
-0.00143308
-0.00143542
-0.00297205
-0.00308424
-0.00410171
-0.0044478
-0.00490907
-0.0056572
-0.00558563
-0.0058518
-0.00569851
-0.00556594
-0.00521796
-0.00437906
-0.00321647
-0.00120005
0.000805259
-4.27178e-06
-0.000882733
-0.00063526
-0.0014387
-0.00143842
-0.00298167
-0.00308147
-0.00410708
-0.00444014
-0.00491129
-0.00564975
-0.0055912
-0.00584633
-0.00571344
-0.00556172
-0.00524709
-0.00438314
-0.00329033
-0.00132299
0.000466246
-6.45311e-06
-0.000885217
-0.000637578
-0.00144463
-0.00144141
-0.00299181
-0.00307824
-0.00411157
-0.00443197
-0.00491274
-0.00564233
-0.00559691
-0.00584094
-0.00572913
-0.00555873
-0.00527706
-0.0043946
-0.00336676
-0.00147283
0.000140125
-8.81552e-06
-0.000887801
-0.00063986
-0.00145072
-0.00144444
-0.00300225
-0.00307484
-0.0041153
-0.00442364
-0.00491357
-0.00563519
-0.00560266
-0.00583597
-0.00574521
-0.00555778
-0.00530707
-0.00441559
-0.00344495
-0.00164752
-0.000179112
-1.12583e-05
-0.000890465
-0.000642118
-0.00145688
-0.00144763
-0.00301288
-0.00307152
-0.00411835
-0.00441543
-0.00491382
-0.00562848
-0.0056083
-0.00583176
-0.00576122
-0.00555972
-0.00533649
-0.00444761
-0.00352507
-0.00184417
-0.0004967
-1.373e-05
-0.000893215
-0.000644395
-0.00146308
-0.00145107
-0.00302358
-0.00306844
-0.00412073
-0.00440755
-0.00491339
-0.00562242
-0.00561359
-0.00582867
-0.00577668
-0.00556547
-0.0053649
-0.00449154
-0.00360862
-0.00205897
-0.000816576
-1.62122e-05
-0.000896066
-0.00064673
-0.00146927
-0.00145481
-0.00303429
-0.00306571
-0.00412235
-0.00440021
-0.00491204
-0.0056173
-0.00561816
-0.00582715
-0.00579119
-0.00557578
-0.00539232
-0.00454757
-0.00369827
-0.00228752
-0.00114105
-1.86973e-05
-0.000899023
-0.000649151
-0.00147542
-0.00145892
-0.0030449
-0.00306346
-0.00412308
-0.00439361
-0.00490953
-0.00561348
-0.00562157
-0.00582769
-0.00580444
-0.00559119
-0.00541958
-0.00461501
-0.00379725
-0.00252588
-0.00147089
-2.11756e-05
-0.000902089
-0.000651677
-0.00148151
-0.00146347
-0.00305533
-0.00306185
-0.0041227
-0.00438802
-0.00490553
-0.00561134
-0.00562349
-0.00583071
-0.00581628
-0.00561188
-0.00544835
-0.0046923
-0.00390845
-0.00277147
-0.00180579
-2.36316e-05
-0.000905262
-0.000654324
-0.00148747
-0.00146851
-0.00306546
-0.00306108
-0.00412097
-0.00438378
-0.00489969
-0.00561127
-0.00562367
-0.00583647
-0.00582689
-0.00563751
-0.00548098
-0.00477762
-0.00403369
-0.00302327
-0.00214459
-2.60444e-05
-0.000908543
-0.000657113
-0.00149325
-0.00147413
-0.00307513
-0.00306139
-0.00411761
-0.00438127
-0.00489163
-0.0056136
-0.00562196
-0.00584504
-0.00583707
-0.0056672
-0.00552009
-0.00486992
-0.0041738
-0.00328117
-0.00248567
-2.83888e-05
-0.000911928
-0.000660075
-0.00149877
-0.00148042
-0.00308419
-0.00306305
-0.00411229
-0.00438091
-0.00488102
-0.00561859
-0.00561838
-0.0058561
-0.00584819
-0.00569944
-0.00556794
-0.00496952
-0.00432837
-0.0035457
-0.0028279
-3.0637e-05
-0.000915411
-0.000663246
-0.00150396
-0.00148749
-0.00309244
-0.00306638
-0.00410464
-0.00438315
-0.00486759
-0.0056263
-0.00561335
-0.00586891
-0.00586207
-0.00573264
-0.00562578
-0.00507774
-0.00449583
-0.00381756
-0.00317099
-3.2759e-05
-0.000918984
-0.000666667
-0.0015087
-0.00149549
-0.00309964
-0.00307175
-0.00409428
-0.00438835
-0.00485123
-0.00563663
-0.00560769
-0.0058821
-0.0058808
-0.005766
-0.005694
-0.00519662
-0.00467421
-0.00409676
-0.00351523
-3.47231e-05
-0.000922628
-0.000670397
-0.00151286
-0.00150459
-0.00310551
-0.00307954
-0.00408091
-0.00439668
-0.00483197
-0.00564922
-0.00560254
-0.00589386
-0.00590628
-0.00580003
-0.00577215
-0.00532863
-0.00486213
-0.00438236
-0.00386137
-3.64976e-05
-0.000926307
-0.000674529
-0.00151625
-0.001515
-0.00310978
-0.00309016
-0.00406429
-0.00440817
-0.00481026
-0.00566346
-0.0055992
-0.00590226
-0.00593962
-0.00583614
-0.00585882
-0.00547625
-0.00505977
-0.00467288
-0.00421042
-3.80565e-05
-0.000929956
-0.000679179
-0.00151867
-0.00152695
-0.00311214
-0.00310395
-0.0040443
-0.00442279
-0.00478746
-0.00568311
-0.00559936
-0.00590579
-0.00598094
-0.00587659
-0.00595206
-0.00564103
-0.00526909
-0.00496707
-0.00456322
-3.93881e-05
-0.000933469
-0.000684485
-0.00151989
-0.0015407
-0.00311233
-0.00312118
-0.00402103
-0.0044402
-0.00476386
-0.00569517
-0.0056052
-0.00590401
-0.00602958
-0.00592412
-0.00605
-0.00582308
-0.00549324
-0.00526471
-0.00492003
-4.0501e-05
-0.000936696
-0.000690609
-0.00151967
-0.00155652
-0.00311016
-0.00314195
-0.0039948
-0.00445979
-0.00474073
-0.00570289
-0.00561817
-0.00589737
-0.00608412
-0.00598153
-0.00615129
-0.0060211
-0.00573559
-0.00556718
-0.00528076
-4.14159e-05
-0.000939445
-0.000697729
-0.00151776
-0.0015746
-0.0031056
-0.00316619
-0.0039663
-0.00448054
-0.00471953
-0.00570488
-0.00563868
-0.00588724
-0.00614233
-0.00605151
-0.00625558
-0.00623179
-0.00599849
-0.00587702
-0.00564583
-4.21998e-05
-0.000941442
-0.000706057
-0.00151395
-0.00159507
-0.00309872
-0.00319362
-0.00393635
-0.00450374
-0.00470145
-0.00570059
-0.00566621
-0.00587609
-0.0062012
-0.00613644
-0.00636451
-0.00645062
-0.00628164
-0.00619699
-0.0060179
-4.29701e-05
-0.000942331
-0.000715777
-0.00150813
-0.00161797
-0.00308978
-0.0032238
-0.00390568
-0.00452255
-0.00468755
-0.00569015
-0.00569977
-0.00586648
-0.00625829
-0.00623787
-0.00648198
-0.00667532
-0.00658213
-0.00652513
-0.00639768
-4.38351e-05
-0.000941771
-0.000726961
-0.00150031
-0.00164318
-0.00307934
-0.00325586
-0.00387539
-0.00453859
-0.0046785
-0.00567364
-0.00573916
-0.00586107
-0.00631273
-0.00635715
-0.00661292
-0.00690333
-0.00689662
-0.0068648
-0.00677667
-4.49776e-05
-0.000939361
-0.000739632
-0.00149062
-0.00167034
-0.00306821
-0.00328889
-0.0038465
-0.00455131
-0.00467507
-0.00565083
-0.00578406
-0.00586469
-0.00636736
-0.00649374
-0.00675917
-0.00713105
-0.00722055
-0.00721774
-0.00715096
-4.6616e-05
-0.000934726
-0.000753675
-0.00147938
-0.00169877
-0.00305716
-0.00332244
-0.0038195
-0.00456037
-0.00467844
-0.00562276
-0.00583375
-0.00588409
-0.00642394
-0.00664308
-0.00692049
-0.00735704
-0.00754874
-0.00758335
-0.00752354
-4.89133e-05
-0.000927598
-0.00076867
-0.00146711
-0.0017278
-0.00304683
-0.00335632
-0.00379494
-0.0045656
-0.00469002
-0.00559327
-0.00588804
-0.00592047
-0.00648077
-0.00679865
-0.00709648
-0.0075824
-0.00787689
-0.00795945
-0.0078966
-5.2015e-05
-0.000917747
-0.00078395
-0.00145436
-0.00175707
-0.00303759
-0.00339043
-0.00377363
-0.00456721
-0.0047113
-0.00556689
-0.00594424
-0.00597229
-0.00653766
-0.00695539
-0.0072861
-0.00780907
-0.00820174
-0.0083427
-0.00827229
-5.59628e-05
-0.000905198
-0.000798634
-0.00144152
-0.00178655
-0.00302943
-0.00342486
-0.00375428
-0.00456608
-0.00474274
-0.00554565
-0.00599757
-0.006037
-0.00659644
-0.00710991
-0.00748732
-0.00803905
-0.00852092
-0.0087285
-0.00865235
-6.07041e-05
-0.000890265
-0.00081181
-0.00142868
-0.00181656
-0.0030225
-0.00346152
-0.00374633
-0.00456292
-0.00478285
-0.00553052
-0.00604558
-0.00611181
-0.00665866
-0.00726012
-0.00769813
-0.00827481
-0.00883345
-0.00911216
-0.00903664
-6.61148e-05
-0.000873453
-0.000822801
-0.00141548
-0.00184782
-0.00301756
-0.00350045
-0.0037488
-0.00455784
-0.00482754
-0.0055223
-0.00608843
-0.006194
-0.00672581
-0.00740555
-0.00791722
-0.00851924
-0.00913954
-0.00948855
-0.00942193
-7.19714e-05
-0.000855398
-0.00083121
-0.00140116
-0.00188095
-0.00301605
-0.00354163
-0.00376263
-0.00455135
-0.00487272
-0.00552095
-0.00612674
-0.00628168
-0.00679984
-0.0075473
-0.00814289
-0.00877386
-0.00943942
-0.00985242
-0.00980282
-7.79214e-05
-0.000836706
-0.000837276
-0.00138475
-0.00191615
-0.00302021
-0.00358462
-0.00378693
-0.00454475
-0.00491608
-0.00552603
-0.00616202
-0.00637385
-0.00688304
-0.00768685
-0.00837193
-0.00903754
-0.00973352
-0.0102003
-0.010174
-8.34865e-05
-0.000817954
-0.000842163
-0.00136545
-0.00195319
-0.003032
-0.00362835
-0.00381999
-0.00454007
-0.00495706
-0.00553698
-0.00619506
-0.00646965
-0.00697707
-0.00782534
-0.00860022
-0.00930739
-0.0100233
-0.0105316
-0.0105316
-8.81289e-05
-0.000799539
-0.000847495
-0.00134345
-0.00199062
-0.00305237
-0.00367218
-0.00386
-0.00453907
-0.00499598
-0.00555324
-0.00622614
-0.00656766
-0.00708205
-0.0079635
-0.00882414
-0.00958045
-0.0103112
-0.0108485
-0.0108732
-9.13398e-05
-0.000781636
-0.00085181
-0.00131949
-0.00202629
-0.00308146
-0.00371651
-0.00390493
-0.00454309
-0.00503359
-0.0055751
-0.0062562
-0.00666602
-0.00719665
-0.00810176
-0.00904128
-0.0098543
-0.0105997
-0.0111538
-0.011197
-9.27583e-05
-0.000764268
-0.000863466
-0.0012951
-0.00205828
-0.00311876
-0.00376246
-0.0039527
-0.0045518
-0.00507115
-0.00560324
-0.00628675
-0.006763
-0.00731868
-0.00824029
-0.00924994
-0.0101265
-0.0108901
-0.0114506
-0.0115028
-9.22586e-05
-0.000746848
-0.000880931
-0.00127312
-0.00208512
-0.00316295
-0.00381122
-0.00400184
-0.00456487
-0.00510908
-0.0056377
-0.00631937
-0.0068576
-0.00744596
-0.00837947
-0.009449
-0.0103933
-0.0111814
-0.0117414
-0.011792
-9.00129e-05
-0.000728415
-0.000904293
-0.0012575
-0.00210628
-0.00321167
-0.00386391
-0.0040517
-0.00458114
-0.00514718
-0.00567808
-0.00635504
-0.00694928
-0.00757697
-0.00852041
-0.00963798
-0.0106499
-0.0114699
-0.0120275
-0.0120673
-8.63635e-05
-0.00070814
-0.000933519
-0.00125229
-0.00212235
-0.00326201
-0.00392154
-0.00410243
-0.00459898
-0.00518532
-0.00572377
-0.00639393
-0.00703748
-0.00771062
-0.00866491
-0.00981743
-0.0108912
-0.0117496
-0.0123081
-0.0123317
-8.17373e-05
-0.000685406
-0.000968076
-0.00126059
-0.00213472
-0.00331091
-0.00398425
-0.00415507
-0.00461721
-0.00522266
-0.00577392
-0.00643612
-0.0071217
-0.00784535
-0.00881405
-0.00998882
-0.011114
-0.0120145
-0.0125803
-0.0125872
-7.68122e-05
-0.000660026
-0.00100679
-0.0012845
-0.00214597
-0.00335592
-0.00405097
-0.00421141
-0.00463611
-0.00525734
-0.00582729
-0.00648211
-0.00720157
-0.00797834
-0.00896647
-0.0101541
-0.011318
-0.01226
-0.0128401
-0.0128335
-7.26066e-05
-0.000632492
-0.00104776
-0.00132505
-0.00216036
-0.00339553
-0.00411975
-0.00427286
-0.00465693
-0.0052878
-0.005882
-0.00653218
-0.00727671
-0.00810567
-0.00911926
-0.0103151
-0.0115057
-0.0124842
-0.013083
-0.0130683
-7.00839e-05
-0.000603743
-0.00108895
-0.00138294
-0.00218091
-0.00342843
-0.00418836
-0.00433968
-0.00468109
-0.00531446
-0.00593578
-0.00658557
-0.00734664
-0.00822353
-0.00926903
-0.0104733
-0.0116801
-0.0126867
-0.0133048
-0.0132871
-6.98114e-05
-0.000575436
-0.00112928
-0.0014566
-0.00221066
-0.0034546
-0.00425413
-0.00441097
-0.00470983
-0.0053387
-0.00598705
-0.00664052
-0.00741089
-0.00832892
-0.00941181
-0.0106283
-0.0118439
-0.0128685
-0.0135025
-0.0134852
-7.23327e-05
-0.000548606
-0.00116848
-0.00154362
-0.00225256
-0.00347599
-0.00431449
-0.00448538
-0.00474322
-0.00536125
-0.0060355
-0.00669523
-0.00746887
-0.00841942
-0.0095426
-0.0107777
-0.0119988
-0.0130317
-0.0136752
-0.0136588
-7.865e-05
-0.000525678
-0.00120558
-0.00164086
-0.00230867
-0.00349586
-0.0043682
-0.00456126
-0.00478087
-0.00538186
-0.00608103
-0.00674912
-0.00752012
-0.00849265
-0.009655
-0.0109167
-0.0121451
-0.0131793
-0.0138244
-0.0138062
-9.01443e-05
-0.000510768
-0.00124022
-0.00174341
-0.00237976
-0.00351843
-0.00441536
-0.00463639
-0.00482235
-0.0053996
-0.0061222
-0.00680261
-0.00756508
-0.0085468
-0.0097427
-0.0110383
-0.0122807
-0.013314
-0.0139532
-0.0139277
-0.000108055
-0.000504443
-0.00127268
-0.00184745
-0.0024653
-0.00354769
-0.00445717
-0.00470885
-0.00486661
-0.00541368
-0.00615625
-0.00685512
-0.00760578
-0.00858184
-0.00980107
-0.0111332
-0.0123992
-0.0134358
-0.0140647
-0.0140255
-0.000133153
-0.000507861
-0.00130484
-0.00195131
-0.00256324
-0.00358595
-0.0044962
-0.00477818
-0.00491175
-0.00542305
-0.00617974
-0.00690384
-0.00764449
-0.00860048
-0.00982729
-0.011192
-0.0124906
-0.01354
-0.0141604
-0.0141031
-0.000166225
-0.000522288
-0.00134066
-0.00205476
-0.00267066
-0.00363396
-0.00453548
-0.00484558
-0.00495651
-0.00542561
-0.00618841
-0.00694334
-0.00768093
-0.00860724
-0.00982203
-0.0112087
-0.0125435
-0.013616
-0.0142369
-0.0141625
-0.000208531
-0.000549018
-0.00138184
-0.00215791
-0.00278483
-0.00369138
-0.00457673
-0.00491239
-0.005002
-0.00542009
-0.0061778
-0.00696566
-0.00771104
-0.0086052
-0.00978925
-0.0111806
-0.0125477
-0.0136513
-0.0142853
-0.0142013
-0.000261375
-0.000588975
-0.00143117
-0.0022616
-0.00290381
-0.00375725
-0.00462019
-0.00497918
-0.00505032
-0.00540801
-0.00614493
-0.00696224
-0.00772609
-0.00859304
-0.00973304
-0.0111082
-0.0124964
-0.0136354
-0.0142928
-0.0142116
-0.000326324
-0.000643258
-0.00149005
-0.00236784
-0.00302788
-0.00383047
-0.00466521
-0.0050455
-0.00510248
-0.00539309
-0.00608947
-0.00692578
-0.00771464
-0.00856349
-0.009654
-0.0109936
-0.0123869
-0.0135596
-0.0142494
-0.0141821
-0.000405223
-0.000713201
-0.00155926
-0.00247875
-0.00315893
-0.00391144
-0.00471084
-0.00510932
-0.00515767
-0.00537861
-0.00601434
-0.00685177
-0.00766583
-0.00850556
-0.00954718
-0.0108375
-0.0122182
-0.0134168
-0.0141447
-0.014104
-0.000499728
-0.000799838
-0.00164103
-0.00259616
-0.00329843
-0.00400194
-0.0047572
-0.00516839
-0.00521349
-0.00536587
-0.00592374
-0.00673901
-0.00757033
-0.00840679
-0.00940255
-0.010635
-0.0119871
-0.0131998
-0.0139673
-0.0139655
-0.000611575
-0.000904696
-0.00173723
-0.00272151
-0.00344776
-0.00410425
-0.0048055
-0.0052213
-0.00526772
-0.00535443
-0.0058206
-0.00658832
-0.00742027
-0.00825355
-0.00920665
-0.010376
-0.0116856
-0.0128988
-0.0137031
-0.0137512
-0.000743005
-0.00103015
-0.00184998
-0.00285532
-0.00360765
-0.00422124
-0.00485873
-0.0052671
-0.00531796
-0.00534422
-0.00570687
-0.00640074
-0.00721002
-0.00803163
-0.00894289
-0.0100454
-0.0112995
-0.0124988
-0.0133338
-0.0134321
-0.000896436
-0.00117859
-0.00198208
-0.00299864
-0.00377761
-0.00435516
-0.00492155
-0.00530732
-0.00536198
-0.00533557
-0.00558582
-0.00617841
-0.00693507
-0.00772669
-0.00859104
-0.00962085
-0.0108055
-0.0119735
-0.0128225
-0.0129746
-0.00107472
-0.00135246
-0.0021364
-0.003153
-0.00395709
-0.00450719
-0.00499875
-0.00534638
-0.00539997
-0.00532915
-0.00546385
-0.00592688
-0.0065922
-0.00732347
-0.00812528
-0.00906864
-0.0101653
-0.0112804
-0.0121329
-0.0123422
-0.00128294
-0.00155511
-0.00231566
-0.00332094
-0.00414536
-0.00467607
-0.00509484
-0.00539062
-0.00543486
-0.00532751
-0.00535144
-0.00565932
-0.00618501
-0.00680982
-0.0075122
-0.00834279
-0.00932709
-0.0103628
-0.0112068
-0.0114826
-0.00152315
-0.00178916
-0.00252309
-0.00350694
-0.00434248
-0.00485912
-0.00521126
-0.00544844
-0.00547378
-0.00533488
-0.00526058
-0.00540509
-0.0057337
-0.00617382
-0.0067055
-0.00737458
-0.00819607
-0.009119
-0.00994369
-0.0103127
-0.00179679
-0.00205771
-0.00276209
-0.00371766
-0.00455056
-0.00505435
-0.00534718
-0.00552563
-0.00552849
-0.0053582
-0.00519462
-0.00518923
-0.00530906
-0.00545611
-0.00567169
-0.00603227
-0.00659273
-0.00731818
-0.00811719
-0.00867013
-0.00210712
-0.00235867
-0.00304167
-0.00395867
-0.00477223
-0.00525825
-0.0055011
-0.00562633
-0.00560861
-0.00541605
-0.00515549
-0.005011
-0.00499849
-0.00490594
-0.00457386
-0.00408868
-0.00373686
-0.00379755
-0.00429384
-0.00502605
-0.00246171
-0.00269762
-0.00336512
-0.00423271
-0.00500619
-0.0054657
-0.00566924
-0.00574921
-0.00572119
-0.00553562
-0.00519406
-0.00480489
-0.0045997
-0.00472671
-0.00474007
-0.00394397
-0.0022567
-0.000467518
0.000836732
0.00149973
-0.00288045
-0.00309697
-0.00372655
-0.00453044
-0.00524333
-0.00566871
-0.0058427
-0.00588717
-0.00583222
-0.00568234
-0.00543642
-0.00477623
-0.00347688
-0.0020706
-0.000846208
0.000244593
0.00138013
0.00253654
0.00346586
0.00375677
-0.00337137
-0.00356218
-0.00413125
-0.00484659
-0.00546708
-0.00584818
-0.00599676
-0.00601925
-0.00589375
-0.00522132
-0.00392474
-0.00253989
-0.0013916
-0.000488397
0.000346165
0.00127483
0.00233793
0.00341061
0.00421458
0.00436456
-0.00394174
-0.00409654
-0.00458769
-0.00517832
-0.00565451
-0.00593513
-0.00602541
-0.00565712
-0.00478005
-0.0037495
-0.00276621
-0.00189217
-0.001057
-0.00014985
0.000884078
0.00203962
0.00324259
0.00434437
0.00511127
0.00518539
-0.00462046
-0.00472789
-0.00506276
-0.0054795
-0.00577744
-0.00563823
-0.00516815
-0.00457249
-0.00395158
-0.00330686
-0.00258859
-0.00172967
-0.000723309
0.000402526
0.00162411
0.0029026
0.00416044
0.00525669
0.0059635
0.00593943
-0.00541549
-0.00552135
-0.00551494
-0.00540232
-0.00521759
-0.00493055
-0.00456688
-0.00416804
-0.0036968
-0.00309107
-0.00230325
-0.0013279
-0.000204288
0.00102108
0.0023148
0.00363584
0.00490337
0.00597252
0.00661389
0.00649427
-0.00616212
-0.00615266
-0.00575478
-0.00526348
-0.00484694
-0.00453229
-0.00423318
-0.00387192
-0.00338883
-0.00273552
-0.00189127
-0.00087162
0.000288244
0.00155148
0.00287559
0.00420415
0.0054505
0.00647254
0.00704842
0.00685164
-0.00675208
-0.00660742
-0.00600661
-0.00527791
-0.00467472
-0.00424875
-0.00390463
-0.00352362
-0.0030198
-0.00234892
-0.00149521
-0.000468067
0.000703231
0.00197779
0.00330733
0.00462997
0.00585481
0.00684
0.00736755
0.00711593
-0.00720627
-0.00697558
-0.00626173
-0.00537222
-0.00458714
-0.00401531
-0.00359067
-0.00317815
-0.00267085
-0.00200526
-0.00115701
-0.000132878
0.00103924
0.00231756
0.00364907
0.00496638
0.0061749
0.00713254
0.00762394
0.00733151
-0.00756845
-0.0072775
-0.00647906
-0.00546748
-0.00453898
-0.00383867
-0.00332959
-0.00288159
-0.00236947
-0.00171348
-0.000879061
0.000135586
0.00130583
0.00258545
0.00391731
0.00522985
0.00642579
0.00736289
0.00782784
0.0075061
-0.00784401
-0.0075154
-0.00664784
-0.00555227
-0.0045264
-0.00372939
-0.00314557
-0.00265444
-0.00212438
-0.00146331
-0.00062995
0.000379495
0.00154158
0.00281477
0.00414042
0.00544432
0.00662796
0.0075493
0.00799599
0.00765466
-0.00801828
-0.00767568
-0.00677329
-0.00563305
-0.00455876
-0.0037122
-0.00308136
-0.00255303
-0.00199784
-0.00131929
-0.000468588
0.000557299
0.00173056
0.00300508
0.00432373
0.00561595
0.00678724
0.00769819
0.00813744
0.00779107
0.00668585
0.00191912
-0.00533648
-0.0104794
-0.0115068
-0.010212
-0.00869165
-0.00762977
-0.00699908
-0.00664728
-0.00645957
-0.00637084
-0.00634903
-0.00637307
-0.00642431
-0.00649147
-0.00657071
-0.00665794
-0.00674624
-0.00683132
-0.00691453
-0.00699938
-0.00708768
-0.00717916
-0.00727281
-0.0073675
-0.00746231
-0.00755693
-0.00765155
-0.00774634
-0.00784082
-0.00793415
-0.00802572
-0.00811524
-0.00820249
-0.0082876
-0.00837107
-0.00845302
-0.00853306
-0.00861085
-0.00868648
-0.00876009
-0.0088314
-0.00890039
-0.00896719
-0.00903218
-0.00909545
-0.00915677
-0.00921601
-0.00927344
-0.00932953
-0.00938474
-0.00943908
-0.00949257
-0.00954523
-0.00959714
-0.00964839
-0.00969916
-0.00974943
-0.00979925
-0.00984848
-0.00989706
-0.0099449
-0.00999205
-0.0100386
-0.0100847
-0.0101303
-0.0101754
-0.0102201
-0.0102647
-0.0103096
-0.0103547
-0.0104
-0.0104453
-0.0104908
-0.0105364
-0.0105823
-0.0106277
-0.0106726
-0.0107172
-0.010762
-0.010807
-0.0108524
-0.0108981
-0.0109441
-0.0109903
-0.0110367
-0.011083
-0.0111291
-0.0111747
-0.0112199
-0.011265
-0.0113104
-0.0113562
-0.0114021
-0.0114479
-0.0114936
-0.0115391
-0.0115844
-0.0116293
-0.011674
-0.0117186
-0.0117632
-0.0118079
-0.0118526
-0.0118972
-0.0119416
-0.0119857
-0.0120295
-0.012073
-0.0121165
-0.0121598
-0.0122031
-0.0122464
-0.0122895
-0.0123324
-0.012375
-0.0124175
-0.0124595
-0.0125016
-0.0125433
-0.0125854
-0.0126271
-0.0126689
-0.0127101
-0.0127513
-0.0127924
-0.0128337
-0.0128751
-0.0129164
-0.0129576
-0.0129983
-0.0130393
-0.0130799
-0.0131209
-0.0131611
-0.0132014
-0.0132411
-0.0132809
-0.01332
-0.0133586
-0.0133969
-0.0134346
-0.0134718
-0.013508
-0.0135444
-0.0135798
-0.0136145
-0.0136484
-0.0136815
-0.0137139
-0.0137453
-0.0137773
-0.0138081
-0.0138372
-0.013864
-0.0138919
-0.013921
-0.0139483
-0.0139726
-0.0139945
-0.0140201
-0.0140452
-0.0140691
-0.0140878
-0.0141076
-0.0141294
-0.014151
-0.01417
-0.0141849
-0.0142025
-0.01422
-0.0142385
-0.0142515
-0.014264
-0.0142788
-0.0142933
-0.0143061
-0.0143144
-0.0143268
-0.0143378
-0.0143471
-0.0143557
-0.0143622
-0.0143725
-0.014377
-0.0143836
-0.0143888
-0.0143923
-0.0143979
-0.014398
-0.0144028
-0.0144009
-0.0144038
-0.0143995
-0.0143972
-0.0143938
-0.0143784
-0.014372
-0.0143613
0.00596235
0.00173669
-0.00525982
-0.0103425
-0.011425
-0.0101732
-0.00866744
-0.00761286
-0.00698704
-0.00663822
-0.0064523
-0.00636469
-0.00634365
-0.00636827
-0.00641995
-0.00648746
-0.00656701
-0.00665451
-0.00674306
-0.00682837
-0.00691178
-0.00699681
-0.00708529
-0.00717692
-0.00727072
-0.00736555
-0.00746049
-0.00755522
-0.00764995
-0.00774484
-0.00783941
-0.00793283
-0.00802448
-0.00811407
-0.00820138
-0.00828656
-0.00837008
-0.00845208
-0.00853217
-0.00860999
-0.00868567
-0.00875932
-0.00883066
-0.00889968
-0.00896651
-0.00903153
-0.00909482
-0.00915616
-0.00921543
-0.00927288
-0.00932899
-0.00938421
-0.00943857
-0.00949208
-0.00954475
-0.00959667
-0.00964794
-0.00969872
-0.00974901
-0.00979883
-0.00984808
-0.00989667
-0.00994452
-0.00999168
-0.0100382
-0.0100844
-0.01013
-0.0101751
-0.0102198
-0.0102644
-0.0103093
-0.0103544
-0.0103997
-0.0104451
-0.0104905
-0.0105362
-0.010582
-0.0106275
-0.0106724
-0.0107169
-0.0107617
-0.0108068
-0.0108522
-0.0108979
-0.0109439
-0.0109901
-0.0110365
-0.0110828
-0.0111289
-0.0111745
-0.0112197
-0.0112649
-0.0113103
-0.011356
-0.0114019
-0.0114478
-0.0114934
-0.011539
-0.0115842
-0.0116292
-0.0116739
-0.0117185
-0.0117631
-0.0118077
-0.0118525
-0.0118971
-0.0119415
-0.0119855
-0.0120293
-0.0120729
-0.0121164
-0.0121597
-0.012203
-0.0122463
-0.0122894
-0.0123323
-0.0123749
-0.0124174
-0.0124594
-0.0125015
-0.0125432
-0.0125853
-0.0126271
-0.0126689
-0.0127101
-0.0127513
-0.0127923
-0.0128336
-0.012875
-0.0129163
-0.0129575
-0.0129983
-0.0130392
-0.0130798
-0.0131208
-0.0131611
-0.0132013
-0.0132411
-0.0132808
-0.0133199
-0.0133586
-0.0133969
-0.0134346
-0.0134717
-0.013508
-0.0135443
-0.0135797
-0.0136145
-0.0136483
-0.0136815
-0.0137139
-0.0137452
-0.0137773
-0.013808
-0.0138372
-0.0138639
-0.0138919
-0.013921
-0.0139483
-0.0139725
-0.0139945
-0.01402
-0.0140452
-0.0140691
-0.0140877
-0.0141076
-0.0141294
-0.014151
-0.01417
-0.0141848
-0.0142025
-0.01422
-0.0142385
-0.0142514
-0.014264
-0.0142788
-0.0142933
-0.0143061
-0.0143144
-0.0143268
-0.0143378
-0.0143471
-0.0143557
-0.0143622
-0.0143725
-0.0143769
-0.0143836
-0.0143888
-0.0143922
-0.0143979
-0.014398
-0.0144028
-0.0144009
-0.0144038
-0.0143995
-0.0143972
-0.0143938
-0.0143783
-0.014372
-0.0143613
0.00519803
0.00155023
-0.00509073
-0.0100841
-0.0112767
-0.0101145
-0.00863547
-0.00758827
-0.00696795
-0.00662389
-0.00644147
-0.00635627
-0.00633688
-0.00636264
-0.00641511
-0.00648318
-0.00656313
-0.00665095
-0.00673977
-0.00682531
-0.00690893
-0.00699417
-0.00708283
-0.00717463
-0.00726857
-0.00736354
-0.00745861
-0.00755347
-0.00764831
-0.00774331
-0.00783798
-0.00793149
-0.00802321
-0.00811288
-0.00820026
-0.00828551
-0.00836909
-0.00845113
-0.00853128
-0.00860915
-0.00868487
-0.00875855
-0.00882993
-0.00889898
-0.00896585
-0.00903089
-0.00909421
-0.00915558
-0.00921486
-0.00927233
-0.00932846
-0.00938371
-0.00943808
-0.0094916
-0.00954429
-0.00959623
-0.00964751
-0.0096983
-0.0097486
-0.00979844
-0.00984769
-0.00989629
-0.00994416
-0.00999132
-0.0100379
-0.010084
-0.0101297
-0.0101748
-0.0102195
-0.0102641
-0.010309
-0.0103542
-0.0103995
-0.0104448
-0.0104903
-0.0105359
-0.0105818
-0.0106272
-0.0106721
-0.0107167
-0.0107615
-0.0108066
-0.010852
-0.0108977
-0.0109437
-0.0109899
-0.0110363
-0.0110826
-0.0111287
-0.0111743
-0.0112195
-0.0112647
-0.0113101
-0.0113559
-0.0114017
-0.0114476
-0.0114933
-0.0115388
-0.0115841
-0.011629
-0.0116738
-0.0117183
-0.0117629
-0.0118076
-0.0118523
-0.0118969
-0.0119414
-0.0119854
-0.0120292
-0.0120728
-0.0121162
-0.0121596
-0.0122029
-0.0122461
-0.0122893
-0.0123322
-0.0123748
-0.0124173
-0.0124593
-0.0125014
-0.0125432
-0.0125852
-0.012627
-0.0126688
-0.01271
-0.0127512
-0.0127922
-0.0128335
-0.0128749
-0.0129162
-0.0129575
-0.0129982
-0.0130391
-0.0130798
-0.0131208
-0.013161
-0.0132013
-0.013241
-0.0132808
-0.0133199
-0.0133585
-0.0133968
-0.0134345
-0.0134717
-0.013508
-0.0135443
-0.0135797
-0.0136144
-0.0136483
-0.0136815
-0.0137138
-0.0137452
-0.0137773
-0.013808
-0.0138371
-0.0138639
-0.0138919
-0.0139209
-0.0139482
-0.0139725
-0.0139945
-0.01402
-0.0140452
-0.0140691
-0.0140877
-0.0141076
-0.0141294
-0.014151
-0.0141699
-0.0141848
-0.0142025
-0.0142199
-0.0142385
-0.0142514
-0.014264
-0.0142788
-0.0142933
-0.0143061
-0.0143144
-0.0143267
-0.0143378
-0.0143471
-0.0143557
-0.0143622
-0.0143724
-0.0143769
-0.0143836
-0.0143888
-0.0143922
-0.0143979
-0.014398
-0.0144028
-0.0144009
-0.0144038
-0.0143994
-0.0143972
-0.0143938
-0.0143783
-0.014372
-0.0143613
0.00447252
0.00138414
-0.00485338
-0.00974162
-0.0110698
-0.0100305
-0.00858927
-0.00755047
-0.00693735
-0.00660093
-0.00642467
-0.00634381
-0.00632737
-0.00635514
-0.006409
-0.00647801
-0.00655861
-0.00664686
-0.00673598
-0.00682178
-0.00690567
-0.00699116
-0.00708005
-0.00717202
-0.00726613
-0.00736125
-0.00745647
-0.00755147
-0.00764645
-0.00774157
-0.00783636
-0.00792998
-0.00802179
-0.00811154
-0.00819902
-0.00828434
-0.00836799
-0.00845011
-0.00853031
-0.00860824
-0.008684
-0.00875773
-0.00882916
-0.00889825
-0.00896515
-0.00903022
-0.00909357
-0.00915497
-0.00921428
-0.00927177
-0.00932792
-0.00938319
-0.00943758
-0.00949112
-0.00954382
-0.00959577
-0.00964707
-0.00969787
-0.00974819
-0.00979804
-0.00984731
-0.00989592
-0.00994379
-0.00999097
-0.0100376
-0.0100837
-0.0101293
-0.0101744
-0.0102191
-0.0102638
-0.0103087
-0.0103539
-0.0103992
-0.0104445
-0.01049
-0.0105357
-0.0105815
-0.010627
-0.0106719
-0.0107165
-0.0107613
-0.0108064
-0.0108518
-0.0108975
-0.0109435
-0.0109897
-0.0110361
-0.0110824
-0.0111285
-0.0111741
-0.0112194
-0.0112645
-0.0113099
-0.0113557
-0.0114016
-0.0114475
-0.0114931
-0.0115387
-0.0115839
-0.0116289
-0.0116736
-0.0117182
-0.0117628
-0.0118075
-0.0118522
-0.0118968
-0.0119412
-0.0119853
-0.0120291
-0.0120727
-0.0121161
-0.0121595
-0.0122028
-0.012246
-0.0122892
-0.0123321
-0.0123747
-0.0124172
-0.0124592
-0.0125013
-0.0125431
-0.0125851
-0.0126269
-0.0126687
-0.0127099
-0.0127511
-0.0127921
-0.0128334
-0.0128748
-0.0129161
-0.0129574
-0.0129981
-0.0130391
-0.0130797
-0.0131207
-0.0131609
-0.0132012
-0.0132409
-0.0132807
-0.0133198
-0.0133585
-0.0133968
-0.0134345
-0.0134716
-0.0135079
-0.0135442
-0.0135797
-0.0136144
-0.0136482
-0.0136814
-0.0137138
-0.0137452
-0.0137772
-0.013808
-0.0138371
-0.0138639
-0.0138918
-0.0139209
-0.0139482
-0.0139725
-0.0139944
-0.01402
-0.0140452
-0.0140691
-0.0140877
-0.0141076
-0.0141293
-0.014151
-0.0141699
-0.0141848
-0.0142025
-0.0142199
-0.0142385
-0.0142514
-0.014264
-0.0142788
-0.0142933
-0.0143061
-0.0143143
-0.0143267
-0.0143378
-0.0143471
-0.0143557
-0.0143622
-0.0143724
-0.0143769
-0.0143836
-0.0143888
-0.0143922
-0.0143979
-0.014398
-0.0144028
-0.0144009
-0.0144038
-0.0143994
-0.0143972
-0.0143938
-0.0143783
-0.014372
-0.0143613
0.00377754
0.00120861
-0.00459682
-0.00936784
-0.010836
-0.00993413
-0.00853535
-0.00750267
-0.00689596
-0.0065687
-0.00640067
-0.00632594
-0.00631382
-0.00634462
-0.00640064
-0.00647119
-0.00655281
-0.00664169
-0.00673119
-0.00681732
-0.00690155
-0.00698738
-0.00707655
-0.00716875
-0.00726304
-0.00735832
-0.0074537
-0.00754889
-0.00764404
-0.00773934
-0.00783428
-0.00792803
-0.00801996
-0.00810983
-0.00819743
-0.00828287
-0.00836661
-0.00844881
-0.0085291
-0.0086071
-0.00868292
-0.00875671
-0.0088282
-0.00889735
-0.00896431
-0.00902942
-0.00909282
-0.00915425
-0.00921359
-0.00927112
-0.0093273
-0.00938259
-0.00943701
-0.00949057
-0.0095433
-0.00959527
-0.00964658
-0.0096974
-0.00974773
-0.0097976
-0.00984688
-0.0098955
-0.00994339
-0.00999058
-0.0100372
-0.0100833
-0.010129
-0.0101741
-0.0102188
-0.0102635
-0.0103084
-0.0103536
-0.0103989
-0.0104442
-0.0104897
-0.0105354
-0.0105812
-0.0106267
-0.0106716
-0.0107162
-0.010761
-0.0108061
-0.0108515
-0.0108972
-0.0109433
-0.0109895
-0.0110359
-0.0110822
-0.0111283
-0.0111739
-0.0112192
-0.0112643
-0.0113097
-0.0113555
-0.0114014
-0.0114473
-0.011493
-0.0115385
-0.0115838
-0.0116288
-0.0116735
-0.0117181
-0.0117627
-0.0118073
-0.0118521
-0.0118967
-0.0119411