/*--------------------------------*- C++ -*----------------------------------*\
| =========                 |                                                 |
| \\      /  F ield         | OpenFOAM: The Open Source CFD Toolbox           |
|  \\    /   O peration     | Version:  v2012                                 |
|   \\  /    A nd           | Website:  www.openfoam.com                      |
|    \\/     M anipulation  |                                                 |
\*---------------------------------------------------------------------------*/
FoamFile
{
    version     2.0;
    format      ascii;
    class       volVectorField;
    location    "1.95";
    object      U;
}
// * * * * * * * * * * * * * * * * * * * * * * * * * * * * * * * * * * * * * //

dimensions      [0 1 -1 0 0 0 0];


internalField   nonuniform List<vector> 
17600
(
(0.832684 0.000817968 0)
(1.15795 -0.00192055 0)
(0.854936 0.00255427 0)
(1.13608 -0.00438065 0)
(0.865946 0.00579498 0)
(1.12579 -0.00780158 0)
(0.861352 0.00639996 0)
(1.12301 -0.00544346 0)
(0.856186 0.00370317 0)
(1.11916 -0.00124866 0)
(0.858745 0.00190329 0)
(1.11546 0.00121831 0)
(0.861539 0.00185694 0)
(1.11124 0.000973069 0)
(0.861693 0.00261177 0)
(1.10734 0.000839221 0)
(0.8571 0.00284714 0)
(1.10399 0.000698891 0)
(0.845261 0.00369708 0)
(1.10011 0.000960354 0)
(0.843779 0.000794023 0)
(1.1448 -0.00189167 0)
(0.866316 0.00252913 0)
(1.12155 -0.00426903 0)
(0.877178 0.00567813 0)
(1.10864 -0.00750663 0)
(0.87276 0.00620746 0)
(1.10245 -0.0051233 0)
(0.871344 0.00351906 0)
(1.09476 -0.00103206 0)
(0.88119 0.00170622 0)
(1.08583 0.00142504 0)
(0.894593 0.00172234 0)
(1.07277 0.00115428 0)
(0.90883 0.00256172 0)
(1.05406 0.000991981 0)
(0.925491 0.00312036 0)
(1.0268 0.000584556 0)
(0.945741 0.00512471 0)
(0.985259 0.00014495 0)
(0.865127 0.000789604 0)
(1.12075 -0.00187723 0)
(0.888071 0.00253233 0)
(1.09691 -0.00417591 0)
(0.898958 0.00559197 0)
(1.08294 -0.00724442 0)
(0.895873 0.00603121 0)
(1.07269 -0.00488679 0)
(0.900639 0.00337387 0)
(1.05898 -0.000980521 0)
(0.918193 0.0016473 0)
(1.04488 0.00135984 0)
(0.938222 0.00178971 0)
(1.02871 0.00101367 0)
(0.955636 0.00280139 0)
(1.01079 0.000771817 0)
(0.970056 0.00354172 0)
(0.99229 0.000418682 0)
(0.977687 0.00558356 0)
(0.975565 0.00113862 0)
(0.893332 0.000823608 0)
(1.09035 -0.00190031 0)
(0.915701 0.00257467 0)
(1.06795 -0.00412977 0)
(0.926285 0.00556368 0)
(1.0557 -0.00706391 0)
(0.924954 0.00597321 0)
(1.04409 -0.0048077 0)
(0.93414 0.00339474 0)
(1.02818 -0.00111325 0)
(0.953196 0.00175919 0)
(1.01521 0.0011041 0)
(0.97011 0.00197916 0)
(1.00493 0.000762084 0)
(0.980463 0.00305415 0)
(0.996845 0.000558545 0)
(0.985743 0.00382647 0)
(0.989926 0.000406507 0)
(0.984428 0.00576976 0)
(0.983263 0.00222068 0)
(0.923445 0.000890082 0)
(1.05967 -0.00195518 0)
(0.943284 0.0026395 0)
(1.04101 -0.00411831 0)
(0.952655 0.00555459 0)
(1.03286 -0.00693713 0)
(0.952433 0.00597899 0)
(1.02335 -0.00481089 0)
(0.962076 0.00349731 0)
(1.01035 -0.00128332 0)
(0.977131 0.00188617 0)
(1.00265 0.000891957 0)
(0.987525 0.00210227 0)
(0.999128 0.000618535 0)
(0.991641 0.00316809 0)
(0.997115 0.000481985 0)
(0.992691 0.00395988 0)
(0.993922 0.000499698 0)
(0.989833 0.00590373 0)
(0.98847 0.00320648 0)
(0.950585 0.000973388 0)
(1.03416 -0.00202077 0)
(0.966035 0.00270424 0)
(1.02074 -0.00412424 0)
(0.973334 0.00553337 0)
(1.01735 -0.00684045 0)
(0.973402 0.00597946 0)
(1.01157 -0.00482514 0)
(0.98077 0.00357306 0)
(1.00342 -0.00140685 0)
(0.990576 0.00194858 0)
(1.00035 0.00076449 0)
(0.996272 0.00213664 0)
(1.00021 0.000556361 0)
(0.997714 0.00319502 0)
(1.00009 0.000470268 0)
(0.997636 0.00401692 0)
(0.997644 0.000659316 0)
(0.994689 0.00599576 0)
(0.992737 0.00410462 0)
(0.971534 0.00105429 0)
(1.01665 -0.00207578 0)
(0.981894 0.0027506 0)
(1.00843 -0.00413216 0)
(0.986902 0.00548768 0)
(1.00877 -0.00675989 0)
(0.986873 0.00594741 0)
(1.00619 -0.00481902 0)
(0.991425 0.00358735 0)
(1.00182 -0.00147318 0)
(0.997303 0.00195079 0)
(1.00114 0.000685864 0)
(1.00063 0.00212662 0)
(1.002 0.000522265 0)
(1.00124 0.00318557 0)
(1.00232 0.000492778 0)
(1.0008 0.00401935 0)
(1.00021 0.000903283 0)
(0.99786 0.00600828 0)
(0.995928 0.00496278 0)
(0.985444 0.0011171 0)
(1.00681 -0.00210897 0)
(0.991394 0.00277159 0)
(1.0025 -0.00413342 0)
(0.994524 0.00541961 0)
(1.00491 -0.00668637 0)
(0.994353 0.00588615 0)
(1.00418 -0.0047864 0)
(0.996777 0.00355651 0)
(1.00179 -0.00149607 0)
(1.00035 0.00192276 0)
(1.00191 0.000635497 0)
(1.00255 0.00210042 0)
(1.0029 0.000505261 0)
(1.00288 0.00315511 0)
(1.00337 0.000548057 0)
(1.0023 0.00397685 0)
(1.00151 0.00122368 0)
(0.999487 0.00594982 0)
(0.997759 0.00577364 0)
(0.993399 0.00115558 0)
(1.00235 -0.00212079 0)
(0.996398 0.00277083 0)
(1.00036 -0.00412585 0)
(0.998289 0.00533729 0)
(1.00354 -0.00661277 0)
(0.997996 0.00580611 0)
(1.0036 -0.00472879 0)
(0.999181 0.0035014 0)
(1.00195 -0.00148607 0)
(1.00155 0.0018832 0)
(1.00216 0.000607595 0)
(1.00315 0.00206639 0)
(1.00307 0.00050763 0)
(1.00334 0.00310276 0)
(1.00359 0.000638676 0)
(1.00273 0.00389442 0)
(1.00192 0.0015985 0)
(1.00014 0.0058482 0)
(0.998612 0.00651243 0)
(0.997337 0.00117267 0)
(1.00077 -0.00211822 0)
(0.998815 0.00275611 0)
(0.999863 -0.00411011 0)
(0.999986 0.00524726 0)
(1.00317 -0.00653368 0)
(0.999567 0.0057134 0)
(1.00351 -0.00464967 0)
(1.00017 0.00343112 0)
(1.00206 -0.00144877 0)
(1.00199 0.00183395 0)
(1.00218 0.000601814 0)
(1.00322 0.00202183 0)
(1.00298 0.000531366 0)
(1.00331 0.00302473 0)
(1.0035 0.000765886 0)
(1.00272 0.0037746 0)
(1.00195 0.00200593 0)
(1.00037 0.0057344 0)
(0.999014 0.00715337 0)
(0.999055 0.00117553 0)
(1.00033 -0.00210855 0)
(0.999962 0.00273378 0)
(0.999854 -0.0040872 0)
(1.00073 0.00515213 0)
(1.00306 -0.00644555 0)
(1.00018 0.00560885 0)
(1.00353 -0.00455301 0)
(1.0006 0.0033467 0)
(1.00218 -0.00138922 0)
(1.00221 0.00177098 0)
(1.00222 0.000618725 0)
(1.00323 0.00195839 0)
(1.00293 0.000580017 0)
(1.00323 0.00291857 0)
(1.00342 0.000927345 0)
(1.00267 0.00362557 0)
(1.00195 0.00242618 0)
(1.00053 0.00564219 0)
(0.99932 0.00767676 0)
(0.99975 0.00117079 0)
(1.00022 -0.0020964 0)
(1.00054 0.00270711 0)
(0.999893 -0.00405785 0)
(1.00107 0.00505209 0)
(1.00294 -0.00634653 0)
(1.00043 0.00549059 0)
(1.00352 -0.00444122 0)
(1.00084 0.00324529 0)
(1.00231 -0.00131086 0)
(1.00244 0.00168982 0)
(1.00236 0.000659001 0)
(1.00334 0.00186959 0)
(1.00303 0.000656624 0)
(1.00327 0.00278406 0)
(1.00346 0.00111713 0)
(1.00272 0.00346561 0)
(1.00204 0.00283635 0)
(1.00078 0.00560104 0)
(0.999676 0.00807747 0)
(1.00004 0.00116259 0)
(1.00016 -0.00208376 0)
(1.00086 0.00267713 0)
(0.999899 -0.00402256 0)
(1.00125 0.0049466 0)
(1.0028 -0.00623585 0)
(1.00054 0.00535646 0)
(1.00347 -0.00431443 0)
(1.00102 0.00312258 0)
(1.00244 -0.00121405 0)
(1.0027 0.00158593 0)
(1.00258 0.000722629 0)
(1.00353 0.00175525 0)
(1.00323 0.000759755 0)
(1.00342 0.00262477 0)
(1.0036 0.00132493 0)
(1.00288 0.00331824 0)
(1.00222 0.00321084 0)
(1.0011 0.00562578 0)
(1.00009 0.00836843 0)
(1.00017 0.00115281 0)
(1.00011 -0.00207108 0)
(1.00105 0.0026439 0)
(0.999896 -0.00398167 0)
(1.00134 0.0048351 0)
(1.00266 -0.00611331 0)
(1.00061 0.00520525 0)
(1.0034 -0.00417184 0)
(1.00118 0.00297579 0)
(1.00255 -0.00109808 0)
(1.00294 0.00145612 0)
(1.0028 0.00080821 0)
(1.00374 0.00161829 0)
(1.00345 0.000883843 0)
(1.00361 0.00245131 0)
(1.00378 0.00153567 0)
(1.00309 0.00320681 0)
(1.00245 0.00353057 0)
(1.00145 0.00571367 0)
(1.00053 0.00857396 0)
(1.00024 0.00114212 0)
(1.00008 -0.00205827 0)
(1.00114 0.0026073 0)
(0.999906 -0.00393533 0)
(1.00138 0.00471673 0)
(1.00256 -0.00597837 0)
(1.00066 0.0050363 0)
(1.00332 -0.0040121 0)
(1.00131 0.00280347 0)
(1.00263 -0.000961026 0)
(1.00315 0.00129805 0)
(1.00299 0.000914627 0)
(1.00392 0.00146007 0)
(1.00365 0.00102177 0)
(1.00379 0.00227852 0)
(1.00395 0.00173308 0)
(1.00329 0.00314798 0)
(1.00268 0.00379555 0)
(1.0018 0.00585148 0)
(1.00096 0.00872219 0)
(1.00027 0.00113069 0)
(1.00007 -0.00204507 0)
(1.00118 0.00256703 0)
(0.999932 -0.00388314 0)
(1.00138 0.00459016 0)
(1.0025 -0.00583029 0)
(1.00069 0.00484882 0)
(1.00326 -0.00383357 0)
(1.00141 0.00260492 0)
(1.00267 -0.000801654 0)
(1.0033 0.00111256 0)
(1.00312 0.00103983 0)
(1.00406 0.00128296 0)
(1.00381 0.00116346 0)
(1.00393 0.00212193 0)
(1.0041 0.00189903 0)
(1.00348 0.0031464 0)
(1.00289 0.00401975 0)
(1.00213 0.0060194 0)
(1.00137 0.00883952 0)
(1.00028 0.00111853 0)
(1.00008 -0.0020312 0)
(1.00119 0.00252265 0)
(0.999969 -0.00382469 0)
(1.00136 0.00445434 0)
(1.00248 -0.00566878 0)
(1.00073 0.00464226 0)
(1.00321 -0.00363479 0)
(1.0015 0.00237908 0)
(1.00268 -0.000618651 0)
(1.00342 0.000901699 0)
(1.00321 0.00117884 0)
(1.00415 0.0010982 0)
(1.00393 0.00129547 0)
(1.00403 0.00199913 0)
(1.00421 0.00201816 0)
(1.00364 0.00319473 0)
(1.0031 0.00421657 0)
(1.00244 0.00619247 0)
(1.00175 0.00894263 0)
(1.00027 0.00110563 0)
(1.0001 -0.00201638 0)
(1.00117 0.00247389 0)
(1.00001 -0.0037599 0)
(1.00134 0.00430837 0)
(1.00248 -0.00549317 0)
(1.00076 0.00441541 0)
(1.00316 -0.00341389 0)
(1.00159 0.00212523 0)
(1.00267 -0.000412927 0)
(1.00352 0.000669099 0)
(1.00326 0.00132437 0)
(1.0042 0.000920276 0)
(1.00401 0.00140111 0)
(1.00411 0.0019241 0)
(1.00431 0.00208994 0)
(1.00378 0.00327935 0)
(1.00329 0.00439879 0)
(1.00274 0.0063507 0)
(1.00212 0.0090346 0)
(1.00026 0.00109188 0)
(1.00012 -0.0020003 0)
(1.00115 0.00242055 0)
(1.00005 -0.00368832 0)
(1.0013 0.00415089 0)
(1.00249 -0.00530216 0)
(1.0008 0.00416677 0)
(1.00312 -0.00317023 0)
(1.00167 0.00184589 0)
(1.00266 -0.000190639 0)
(1.0036 0.000423784 0)
(1.0033 0.00146579 0)
(1.00424 0.000762217 0)
(1.00409 0.00146262 0)
(1.00417 0.00190166 0)
(1.00441 0.002128 0)
(1.00393 0.00338581 0)
(1.00349 0.00458211 0)
(1.00304 0.00648873 0)
(1.00248 0.00911272 0)
(1.00025 0.00107725 0)
(1.00015 -0.00198272 0)
(1.00112 0.00236191 0)
(1.0001 -0.00360842 0)
(1.00127 0.00397974 0)
(1.00251 -0.00509405 0)
(1.00084 0.00389516 0)
(1.00309 -0.00290391 0)
(1.00176 0.00154439 0)
(1.00264 3.94217e-05 0)
(1.00367 0.000176363 0)
(1.00334 0.00158859 0)
(1.00426 0.00063716 0)
(1.00416 0.00146923 0)
(1.00422 0.00192527 0)
(1.0045 0.00214813 0)
(1.00408 0.00349456 0)
(1.00368 0.00477784 0)
(1.00333 0.00661345 0)
(1.00284 0.00917624 0)
(1.00024 0.00106167 0)
(1.00018 -0.00196314 0)
(1.00109 0.00229678 0)
(1.00014 -0.00351844 0)
(1.00123 0.0037932 0)
(1.00253 -0.00486845 0)
(1.00089 0.00360055 0)
(1.00305 -0.00261628 0)
(1.00186 0.00122339 0)
(1.00261 0.000275119 0)
(1.00375 -5.15587e-05 0)
(1.00337 0.0016819 0)
(1.00428 0.000556819 0)
(1.00423 0.00141995 0)
(1.00426 0.00197907 0)
(1.0046 0.0021634 0)
(1.00425 0.00358394 0)
(1.00389 0.00498309 0)
(1.00363 0.00673585 0)
(1.0032 0.00922454 0)
(1.00022 0.001045 0)
(1.00021 -0.00194062 0)
(1.00106 0.00222378 0)
(1.00019 -0.0034178 0)
(1.0012 0.00359069 0)
(1.00255 -0.00462477 0)
(1.00095 0.0032835 0)
(1.003 -0.002312 0)
(1.00195 0.000891487 0)
(1.00259 0.000510026 0)
(1.00382 -0.000269928 0)
(1.00341 0.00172917 0)
(1.00428 0.000529535 0)
(1.00431 0.00132379 0)
(1.00432 0.00204766 0)
(1.0047 0.00218702 0)
(1.00443 0.00364304 0)
(1.0041 0.00518388 0)
(1.00393 0.00686778 0)
(1.00356 0.00925855 0)
(1.0002 0.00102696 0)
(1.00024 -0.00191385 0)
(1.00103 0.00214113 0)
(1.00023 -0.00330526 0)
(1.00117 0.00337022 0)
(1.00256 -0.00436152 0)
(1.00101 0.00294489 0)
(1.00296 -0.00199473 0)
(1.00206 0.000555504 0)
(1.00257 0.000729604 0)
(1.00388 -0.000464308 0)
(1.00346 0.00171539 0)
(1.00428 0.000557128 0)
(1.0044 0.00119338 0)
(1.00437 0.00211993 0)
(1.0048 0.00222698 0)
(1.00463 0.00367422 0)
(1.00433 0.00536095 0)
(1.00423 0.00701703 0)
(1.00393 0.00928331 0)
(1.00019 0.00100723 0)
(1.00027 -0.00188146 0)
(1.001 0.00204691 0)
(1.00027 -0.00317923 0)
(1.00114 0.00313091 0)
(1.00257 -0.00408268 0)
(1.00108 0.00259155 0)
(1.00291 -0.00167489 0)
(1.00216 0.000228251 0)
(1.00255 0.000919715 0)
(1.00394 -0.000603514 0)
(1.00352 0.00163449 0)
(1.00427 0.000629408 0)
(1.0045 0.00104119 0)
(1.00445 0.0021792 0)
(1.00491 0.00228646 0)
(1.00484 0.00368024 0)
(1.00457 0.00549197 0)
(1.00453 0.00717293 0)
(1.0043 0.00929885 0)
(1.00017 0.00098646 0)
(1.0003 -0.0018436 0)
(1.00098 0.00194205 0)
(1.00031 -0.00304137 0)
(1.00112 0.00287664 0)
(1.00258 -0.0037932 0)
(1.00115 0.00223056 0)
(1.00286 -0.00136381 0)
(1.00227 -6.96104e-05 0)
(1.00254 0.00106412 0)
(1.00399 -0.000690123 0)
(1.00359 0.00149935 0)
(1.00426 0.000726302 0)
(1.0046 0.000895324 0)
(1.00453 0.00220044 0)
(1.00501 0.0023805 0)
(1.00507 0.00366614 0)
(1.00485 0.00557175 0)
(1.00484 0.007305 0)
(1.00467 0.00930412 0)
(1.00016 0.000963153 0)
(1.00032 -0.00179546 0)
(1.00095 0.00182002 0)
(1.00035 -0.0028856 0)
(1.0011 0.00260291 0)
(1.00259 -0.00349001 0)
(1.00123 0.00186188 0)
(1.00281 -0.00105897 0)
(1.00237 -0.000350713 0)
(1.00253 0.00116975 0)
(1.00402 -0.000736879 0)
(1.00367 0.00134566 0)
(1.00425 0.000812016 0)
(1.00469 0.000793867 0)
(1.00464 0.00215717 0)
(1.00512 0.0025281 0)
(1.00531 0.00364614 0)
(1.00514 0.00564061 0)
(1.00516 0.00739392 0)
(1.00505 0.00930949 0)
(1.00014 0.000937793 0)
(1.00035 -0.00173768 0)
(1.00093 0.0016824 0)
(1.00038 -0.00271934 0)
(1.00109 0.00231867 0)
(1.00259 -0.00318594 0)
(1.00131 0.00150077 0)
(1.00275 -0.0007796 0)
(1.00248 -0.000597562 0)
(1.00254 0.00122251 0)
(1.00405 -0.000742258 0)
(1.00376 0.00116858 0)
(1.00424 0.000901572 0)
(1.00478 0.000727332 0)
(1.00477 0.00208505 0)
(1.00523 0.00270219 0)
(1.00555 0.00367659 0)
(1.00545 0.00570303 0)
(1.00549 0.00748213 0)
(1.00543 0.00933491 0)
(1.00013 0.000911511 0)
(1.00038 -0.00167237 0)
(1.00091 0.00153452 0)
(1.00042 -0.00254934 0)
(1.00107 0.00203159 0)
(1.00259 -0.0028912 0)
(1.0014 0.0011638 0)
(1.0027 -0.000543558 0)
(1.00257 -0.000784983 0)
(1.00255 0.00121822 0)
(1.00407 -0.000694545 0)
(1.00386 0.000953002 0)
(1.00423 0.0010189 0)
(1.00486 0.000698802 0)
(1.00492 0.00205503 0)
(1.00536 0.0028841 0)
(1.00579 0.00379347 0)
(1.00578 0.00573447 0)
(1.00583 0.00758504 0)
(1.00581 0.00936213 0)
(1.00011 0.00088144 0)
(1.0004 -0.00159179 0)
(1.00089 0.0013683 0)
(1.00045 -0.00236745 0)
(1.00107 0.00173849 0)
(1.00258 -0.00260874 0)
(1.00149 0.00084923 0)
(1.00265 -0.00034008 0)
(1.00267 -0.000934534 0)
(1.00257 0.00117957 0)
(1.00408 -0.000602868 0)
(1.00397 0.000726502 0)
(1.00423 0.00114004 0)
(1.00494 0.000761665 0)
(1.00508 0.0020759 0)
(1.00551 0.00308979 0)
(1.00603 0.00396681 0)
(1.00613 0.00576754 0)
(1.00618 0.00766799 0)
(1.00619 0.00939711 0)
(1.00009 0.000849892 0)
(1.00043 -0.00150346 0)
(1.00087 0.00119646 0)
(1.00048 -0.00219184 0)
(1.00106 0.00145847 0)
(1.00258 -0.00235888 0)
(1.00158 0.000565544 0)
(1.0026 -0.000172771 0)
(1.00275 -0.00104586 0)
(1.0026 0.00110804 0)
(1.00407 -0.000465789 0)
(1.00408 0.000543359 0)
(1.00426 0.00126696 0)
(1.00502 0.000918579 0)
(1.00527 0.00211673 0)
(1.00567 0.00328767 0)
(1.00626 0.00415416 0)
(1.00647 0.00580612 0)
(1.00656 0.00770551 0)
(1.00656 0.00941693 0)
(1.00008 0.000816361 0)
(1.00044 -0.00140726 0)
(1.00086 0.00101978 0)
(1.0005 -0.00203015 0)
(1.00106 0.00119222 0)
(1.00257 -0.00213898 0)
(1.00168 0.000313009 0)
(1.00255 -3.589e-05 0)
(1.00283 -0.00111035 0)
(1.00264 0.00101405 0)
(1.00406 -0.000279224 0)
(1.00419 0.000442411 0)
(1.0043 0.00139947 0)
(1.00509 0.00112957 0)
(1.00546 0.00216263 0)
(1.00585 0.00343972 0)
(1.00649 0.00432907 0)
(1.00682 0.00583302 0)
(1.00694 0.00769026 0)
(1.00693 0.00938905 0)
(1.00006 0.000781918 0)
(1.00046 -0.00130681 0)
(1.00084 0.000842571 0)
(1.00052 -0.00188924 0)
(1.00106 0.000941816 0)
(1.00256 -0.00194293 0)
(1.00177 7.99842e-05 0)
(1.00251 7.71058e-05 0)
(1.0029 -0.00112441 0)
(1.0027 0.000917622 0)
(1.00405 -5.10593e-05 0)
(1.00431 0.000409981 0)
(1.00437 0.00150618 0)
(1.00516 0.00135678 0)
(1.00565 0.00221311 0)
(1.00605 0.00354043 0)
(1.00672 0.00447546 0)
(1.00716 0.00584542 0)
(1.00733 0.0076221 0)
(1.00731 0.00930234 0)
(1.00005 0.000746795 0)
(1.00047 -0.00120865 0)
(1.00083 0.000679618 0)
(1.00054 -0.00177741 0)
(1.00106 0.000712783 0)
(1.00254 -0.00177113 0)
(1.00187 -0.000132602 0)
(1.00247 0.000174286 0)
(1.00296 -0.00107955 0)
(1.00278 0.000839298 0)
(1.00404 0.000194512 0)
(1.00442 0.000429662 0)
(1.00445 0.00157495 0)
(1.00522 0.00157639 0)
(1.00583 0.00226684 0)
(1.00626 0.00359286 0)
(1.00694 0.00458442 0)
(1.00749 0.00584381 0)
(1.00773 0.00751026 0)
(1.00769 0.00915691 0)
(1.00004 0.000711785 0)
(1.00047 -0.00111392 0)
(1.00081 0.000533595 0)
(1.00055 -0.00168556 0)
(1.00107 0.000496034 0)
(1.00253 -0.00160755 0)
(1.00197 -0.000316068 0)
(1.00244 0.000276811 0)
(1.00301 -0.000962557 0)
(1.00286 0.000779023 0)
(1.00403 0.000431624 0)
(1.00452 0.000492577 0)
(1.00454 0.00161939 0)
(1.00528 0.00177404 0)
(1.00601 0.00232575 0)
(1.00649 0.00360836 0)
(1.00718 0.00466604 0)
(1.0078 0.00584385 0)
(1.00812 0.00738454 0)
(1.00807 0.00897276 0)
(1.00002 0.000677021 0)
(1.00048 -0.00102663 0)
(1.0008 0.00041117 0)
(1.00057 -0.00160852 0)
(1.00108 0.000289499 0)
(1.00251 -0.00144478 0)
(1.00207 -0.000459428 0)
(1.00243 0.000375799 0)
(1.00305 -0.000783103 0)
(1.00295 0.00073204 0)
(1.00403 0.000637573 0)
(1.00461 0.000577179 0)
(1.00465 0.00164329 0)
(1.00535 0.00193891 0)
(1.00617 0.002394 0)
(1.00672 0.00360482 0)
(1.00742 0.00472961 0)
(1.00811 0.00585425 0)
(1.00851 0.0072606 0)
(1.00846 0.00876035 0)
(1.00001 0.000642169 0)
(1.00048 -0.000948643 0)
(1.00078 0.000308718 0)
(1.00058 -0.00153742 0)
(1.00109 9.02762e-05 0)
(1.0025 -0.00129079 0)
(1.00217 -0.000552673 0)
(1.00243 0.00045622 0)
(1.00309 -0.000576616 0)
(1.00305 0.000697918 0)
(1.00404 0.000801951 0)
(1.00469 0.000670896 0)
(1.00477 0.00165205 0)
(1.00542 0.00207649 0)
(1.00633 0.0024804 0)
(1.00696 0.00360126 0)
(1.00767 0.00477438 0)
(1.00841 0.00586633 0)
(1.00888 0.00713703 0)
(1.00885 0.00852424 0)
(1 0.000609112 0)
(1.00047 -0.000884443 0)
(1.00076 0.000223614 0)
(1.00059 -0.00145274 0)
(1.00112 -0.000105055 0)
(1.00249 -0.00114423 0)
(1.00227 -0.00059402 0)
(1.00245 0.000509111 0)
(1.00312 -0.000370863 0)
(1.00315 0.000680002 0)
(1.00405 0.000931103 0)
(1.00477 0.00077222 0)
(1.00489 0.0016518 0)
(1.00551 0.00219417 0)
(1.00648 0.00258337 0)
(1.00721 0.00360405 0)
(1.00794 0.0047896 0)
(1.0087 0.00586135 0)
(1.00923 0.00700777 0)
(1.00922 0.00827209 0)
(0.99999 0.000576314 0)
(1.00047 -0.000834065 0)
(1.00075 0.000152869 0)
(1.00059 -0.0013388 0)
(1.00114 -0.000280102 0)
(1.00249 -0.00100092 0)
(1.00237 -0.000588299 0)
(1.00248 0.000535633 0)
(1.00315 -0.000173461 0)
(1.00325 0.000684932 0)
(1.00407 0.00104368 0)
(1.00483 0.000884059 0)
(1.00502 0.00165206 0)
(1.0056 0.00229317 0)
(1.00662 0.0026928 0)
(1.00745 0.00360981 0)
(1.00821 0.00476956 0)
(1.00898 0.00582777 0)
(1.00956 0.00687329 0)
(1.00958 0.00801639 0)
(0.999981 0.000544187 0)
(1.00046 -0.000796815 0)
(1.00074 8.77944e-05 0)
(1.00059 -0.00119431 0)
(1.00117 -0.000416472 0)
(1.0025 -0.00087053 0)
(1.00248 -0.000544277 0)
(1.00252 0.000551224 0)
(1.00317 1.42114e-05 0)
(1.00334 0.000709176 0)
(1.00409 0.00114674 0)
(1.00489 0.00100884 0)
(1.00516 0.00166233 0)
(1.00571 0.00237193 0)
(1.00676 0.00279796 0)
(1.00769 0.00361451 0)
(1.00849 0.00472034 0)
(1.00927 0.00576702 0)
(1.00987 0.00673929 0)
(1.00992 0.00776939 0)
(0.999973 0.000512174 0)
(1.00046 -0.000767484 0)
(1.00074 2.60999e-05 0)
(1.00058 -0.00102648 0)
(1.00121 -0.000510743 0)
(1.00252 -0.000762674 0)
(1.00258 -0.000475215 0)
(1.00257 0.000566031 0)
(1.00321 0.000178713 0)
(1.00344 0.00074033 0)
(1.00413 0.00123619 0)
(1.00494 0.00114327 0)
(1.00529 0.00168849 0)
(1.00584 0.00243153 0)
(1.0069 0.00289105 0)
(1.00792 0.0036151 0)
(1.00877 0.00464901 0)
(1.00955 0.00568099 0)
(1.01017 0.00660348 0)
(1.01024 0.00753312 0)
(0.999967 0.000479266 0)
(1.00046 -0.000740565 0)
(1.00075 -4.25312e-05 0)
(1.00058 -0.00084404 0)
(1.00124 -0.000555362 0)
(1.00255 -0.000673289 0)
(1.00268 -0.000384812 0)
(1.00264 0.000588245 0)
(1.00324 0.000321826 0)
(1.00354 0.000777758 0)
(1.00418 0.00131027 0)
(1.00499 0.00127903 0)
(1.00543 0.00173044 0)
(1.00598 0.00247491 0)
(1.00704 0.00296812 0)
(1.00814 0.00361201 0)
(1.00906 0.00456104 0)
(1.00985 0.00556846 0)
(1.01047 0.00645649 0)
(1.01055 0.00730172 0)
(0.999962 0.000444045 0)
(1.00046 -0.000707247 0)
(1.00076 -0.000130011 0)
(1.00058 -0.000656835 0)
(1.00127 -0.00054042 0)
(1.00259 -0.000593511 0)
(1.00279 -0.000280282 0)
(1.00271 0.000622059 0)
(1.00328 0.000456858 0)
(1.00363 0.000824553 0)
(1.00424 0.00137141 0)
(1.00505 0.00140901 0)
(1.00556 0.00178415 0)
(1.00612 0.00250596 0)
(1.00719 0.00303066 0)
(1.00835 0.00361188 0)
(1.00934 0.00446542 0)
(1.01014 0.00542929 0)
(1.01076 0.00628773 0)
(1.01084 0.00706534 0)
(0.999959 0.000405327 0)
(1.00045 -0.000662556 0)
(1.00079 -0.000230597 0)
(1.0006 -0.000476827 0)
(1.0013 -0.000464257 0)
(1.00264 -0.000513127 0)
(1.0029 -0.000169807 0)
(1.00279 0.000675841 0)
(1.00332 0.000585662 0)
(1.00373 0.000878012 0)
(1.00432 0.00142437 0)
(1.00511 0.00152927 0)
(1.00569 0.00184335 0)
(1.00628 0.00252483 0)
(1.00734 0.0030791 0)
(1.00855 0.00361845 0)
(1.00961 0.004371 0)
(1.01045 0.00526604 0)
(1.01105 0.00608877 0)
(1.01112 0.00681244 0)
(0.999958 0.000364666 0)
(1.00044 -0.000606926 0)
(1.00083 -0.000337238 0)
(1.00062 -0.000314459 0)
(1.00133 -0.000337088 0)
(1.00269 -0.000422556 0)
(1.00302 -6.03769e-05 0)
(1.00287 0.000751074 0)
(1.00336 0.000715531 0)
(1.00383 0.0009394 0)
(1.00441 0.00147398 0)
(1.00517 0.00163816 0)
(1.00582 0.00190468 0)
(1.00645 0.00253207 0)
(1.00749 0.00311176 0)
(1.00874 0.00362861 0)
(1.00987 0.00428455 0)
(1.01074 0.00508919 0)
(1.01134 0.00586267 0)
(1.01139 0.00654027 0)
(0.999958 0.000323428 0)
(1.00044 -0.000540071 0)
(1.00088 -0.000440645 0)
(1.00066 -0.000177482 0)
(1.00136 -0.000174119 0)
(1.00275 -0.000309978 0)
(1.00314 4.09418e-05 0)
(1.00297 0.000833785 0)
(1.00341 0.000854018 0)
(1.00393 0.00101077 0)
(1.0045 0.00151818 0)
(1.00524 0.00173582 0)
(1.00594 0.00196861 0)
(1.00662 0.00253283 0)
(1.00766 0.00312393 0)
(1.00893 0.00363042 0)
(1.01012 0.0042035 0)
(1.01103 0.00490876 0)
(1.01163 0.00561833 0)
(1.01166 0.00625118 0)
(0.99996 0.000280814 0)
(1.00042 -0.000457443 0)
(1.00094 -0.000529005 0)
(1.00072 -6.77313e-05 0)
(1.00139 8.28321e-06 0)
(1.0028 -0.000174037 0)
(1.00327 0.000139546 0)
(1.00307 0.000915196 0)
(1.00346 0.00100235 0)
(1.00402 0.00109775 0)
(1.00461 0.0015569 0)
(1.00532 0.00182363 0)
(1.00606 0.002036 0)
(1.0068 0.00253103 0)
(1.00784 0.00310951 0)
(1.00911 0.00360981 0)
(1.01034 0.00411882 0)
(1.0113 0.00472941 0)
(1.01191 0.0053645 0)
(1.01192 0.00594816 0)
(0.999963 0.000236839 0)
(1.0004 -0.000359218 0)
(1.00099 -0.000588142 0)
(1.0008 1.19287e-05 0)
(1.00142 0.000206589 0)
(1.00285 -1.68769e-05 0)
(1.00339 0.000239742 0)
(1.00319 0.000995064 0)
(1.00352 0.00115097 0)
(1.00411 0.00120346 0)
(1.00472 0.00159765 0)
(1.0054 0.00190033 0)
(1.00617 0.00210459 0)
(1.00697 0.00252629 0)
(1.00803 0.00306834 0)
(1.00929 0.00356119 0)
(1.01055 0.00402518 0)
(1.01155 0.00455371 0)
(1.01217 0.00510964 0)
(1.01217 0.00563605 0)
(0.999968 0.000194933 0)
(1.00038 -0.000256566 0)
(1.00105 -0.000609789 0)
(1.0009 6.31553e-05 0)
(1.00146 0.000414993 0)
(1.00289 0.000162817 0)
(1.00352 0.000341498 0)
(1.00331 0.00106952 0)
(1.00357 0.00128746 0)
(1.00418 0.00132082 0)
(1.00483 0.00164833 0)
(1.0055 0.00196596 0)
(1.00627 0.00217044 0)
(1.00713 0.00251959 0)
(1.00821 0.00300694 0)
(1.00947 0.00348509 0)
(1.01075 0.00391791 0)
(1.01177 0.00437809 0)
(1.01242 0.0048556 0)
(1.01241 0.00531678 0)
(0.999974 0.000160063 0)
(1.00036 -0.000158989 0)
(1.0011 -0.000592494 0)
(1.00101 9.68252e-05 0)
(1.00151 0.00060835 0)
(1.00292 0.000364702 0)
(1.00364 0.000456608 0)
(1.00344 0.001142 0)
(1.00364 0.00141564 0)
(1.00426 0.00144076 0)
(1.00494 0.00171083 0)
(1.00559 0.00202389 0)
(1.00637 0.00223002 0)
(1.00727 0.00251314 0)
(1.00839 0.00293234 0)
(1.00966 0.00338273 0)
(1.01094 0.00379101 0)
(1.01198 0.00419609 0)
(1.01264 0.00460128 0)
(1.01263 0.0049937 0)
(0.999981 0.000131196 0)
(1.00033 -6.2681e-05 0)
(1.00115 -0.000533308 0)
(1.00114 0.000123877 0)
(1.00158 0.00077751 0)
(1.00295 0.000582962 0)
(1.00375 0.000592811 0)
(1.00358 0.00121641 0)
(1.00371 0.00154137 0)
(1.00432 0.00155971 0)
(1.00504 0.00177952 0)
(1.00569 0.00208018 0)
(1.00647 0.00228411 0)
(1.0074 0.00251109 0)
(1.00856 0.00285075 0)
(1.00984 0.00325623 0)
(1.01112 0.00363931 0)
(1.01217 0.00400164 0)
(1.01284 0.00434515 0)
(1.01283 0.00467126 0)
(0.999988 0.000106786 0)
(1.00031 3.63482e-05 0)
(1.00119 -0.000431165 0)
(1.00128 0.000152652 0)
(1.00165 0.000918891 0)
(1.00297 0.000806677 0)
(1.00384 0.000749376 0)
(1.00371 0.00129638 0)
(1.00378 0.00166121 0)
(1.00438 0.001682 0)
(1.00513 0.00184454 0)
(1.00578 0.00213423 0)
(1.00655 0.00233334 0)
(1.0075 0.00251409 0)
(1.0087 0.00276671 0)
(1.01 0.00310795 0)
(1.01129 0.00345778 0)
(1.01234 0.0037861 0)
(1.013 0.00408087 0)
(1.01299 0.00434796 0)
(0.999995 8.99849e-05 0)
(1.00028 0.000139307 0)
(1.00122 -0.000292865 0)
(1.00141 0.000191884 0)
(1.00175 0.00102725 0)
(1.00299 0.00102633 0)
(1.00392 0.000925238 0)
(1.00384 0.00139191 0)
(1.00386 0.00177544 0)
(1.00442 0.0018114 0)
(1.00521 0.00190803 0)
(1.00588 0.00217793 0)
(1.00663 0.00237889 0)
(1.00758 0.0025211 0)
(1.00881 0.00268869 0)
(1.01015 0.00294704 0)
(1.01144 0.00324773 0)
(1.01249 0.0035432 0)
(1.01315 0.00380069 0)
(1.01313 0.00401885 0)
(1 8.22671e-05 0)
(1.00026 0.000238837 0)
(1.00123 -0.000134068 0)
(1.00154 0.000255782 0)
(1.00185 0.00111775 0)
(1.00301 0.00123427 0)
(1.00398 0.00111493 0)
(1.00396 0.00150518 0)
(1.00393 0.00189015 0)
(1.00446 0.00194249 0)
(1.00528 0.00198013 0)
(1.00596 0.00220659 0)
(1.00669 0.0024172 0)
(1.00763 0.00253188 0)
(1.00889 0.00262459 0)
(1.01026 0.00278702 0)
(1.01158 0.00301724 0)
(1.01262 0.00327079 0)
(1.01327 0.00349628 0)
(1.01323 0.003676 0)
(1.00001 8.49735e-05 0)
(1.00025 0.000325852 0)
(1.00124 3.70982e-05 0)
(1.00166 0.000347778 0)
(1.00196 0.00121022 0)
(1.00303 0.00142641 0)
(1.00403 0.00131603 0)
(1.00407 0.00163817 0)
(1.00401 0.00201741 0)
(1.00448 0.00207561 0)
(1.00532 0.00206134 0)
(1.00604 0.00222308 0)
(1.00675 0.00243459 0)
(1.00766 0.0025386 0)
(1.00892 0.00257254 0)
(1.01032 0.00263649 0)
(1.01168 0.00277923 0)
(1.01274 0.00297176 0)
(1.01337 0.00316112 0)
(1.01331 0.00330961 0)
(1.00002 9.42637e-05 0)
(1.00023 0.000410125 0)
(1.00124 0.000220358 0)
(1.00177 0.000467349 0)
(1.00208 0.00130929 0)
(1.00306 0.00160437 0)
(1.00407 0.00152095 0)
(1.00417 0.00178573 0)
(1.00408 0.00216288 0)
(1.00449 0.00222169 0)
(1.00534 0.00215589 0)
(1.0061 0.00223578 0)
(1.00681 0.00242557 0)
(1.00768 0.0025273 0)
(1.00891 0.00252392 0)
(1.01033 0.00249729 0)
(1.01173 0.00254421 0)
(1.01282 0.00265474 0)
(1.01345 0.00279402 0)
(1.01337 0.00291051 0)
(1.00002 0.000108286 0)
(1.00023 0.000494189 0)
(1.00123 0.000406415 0)
(1.00186 0.000622313 0)
(1.0022 0.0014194 0)
(1.00308 0.00178261 0)
(1.00409 0.00172722 0)
(1.00426 0.0019438 0)
(1.00414 0.00231514 0)
(1.00448 0.00238842 0)
(1.00532 0.0022702 0)
(1.00613 0.00226071 0)
(1.00685 0.00239436 0)
(1.00768 0.00249214 0)
(1.00887 0.00246416 0)
(1.01029 0.00236901 0)
(1.01172 0.00231409 0)
(1.01284 0.00233375 0)
(1.01349 0.0024035 0)
(1.01339 0.0024793 0)
(1.00003 0.000129652 0)
(1.00022 0.00057631 0)
(1.00122 0.000593356 0)
(1.00194 0.000800648 0)
(1.00231 0.00155095 0)
(1.00311 0.0019643 0)
(1.0041 0.00193692 0)
(1.00433 0.00211143 0)
(1.0042 0.00246912 0)
(1.00446 0.00257065 0)
(1.00527 0.00241293 0)
(1.00612 0.0023118 0)
(1.00687 0.00236018 0)
(1.00766 0.00243144 0)
(1.0088 0.00238386 0)
(1.01019 0.00223866 0)
(1.01164 0.00208913 0)
(1.01281 0.00201273 0)
(1.01348 0.00200213 0)
(1.01339 0.00202314 0)
(1.00003 0.000154568 0)
(1.00022 0.000663332 0)
(1.00121 0.000783475 0)
(1.00201 0.000983587 0)
(1.00241 0.00170431 0)
(1.00314 0.00215807 0)
(1.0041 0.00215947 0)
(1.00438 0.00229051 0)
(1.00425 0.00262771 0)
(1.00442 0.00275807 0)
(1.00518 0.00258726 0)
(1.00606 0.00239366 0)
(1.00684 0.00234477 0)
(1.00762 0.00235411 0)
(1.00869 0.00228116 0)
(1.01004 0.00209242 0)
(1.0115 0.00186565 0)
(1.0127 0.00169118 0)
(1.01341 0.00159517 0)
(1.01333 0.00155005 0)
(1.00003 0.000184116 0)
(1.00022 0.000752633 0)
(1.00119 0.000972978 0)
(1.00206 0.00117937 0)
(1.00251 0.00187287 0)
(1.00316 0.00237149 0)
(1.00408 0.00240519 0)
(1.00441 0.00249152 0)
(1.00429 0.00279404 0)
(1.00438 0.00294606 0)
(1.00506 0.00278403 0)
(1.00594 0.00251426 0)
(1.00677 0.00235874 0)
(1.00754 0.00228479 0)
(1.00855 0.00216388 0)
(1.00984 0.00193066 0)
(1.01128 0.00163587 0)
(1.0125 0.00136955 0)
(1.01326 0.00118086 0)
(1.0132 0.00106223 0)
(1.00004 0.000218838 0)
(1.00022 0.000840816 0)
(1.00117 0.00116171 0)
(1.0021 0.00139039 0)
(1.0026 0.00205817 0)
(1.00318 0.00259963 0)
(1.00405 0.00267336 0)
(1.00442 0.0027206 0)
(1.00431 0.00297978 0)
(1.00432 0.00314125 0)
(1.00491 0.00299565 0)
(1.00577 0.00267525 0)
(1.00663 0.00241011 0)
(1.0074 0.00223582 0)
(1.00837 0.00204411 0)
(1.00959 0.00175435 0)
(1.01098 0.00139063 0)
(1.01222 0.00103572 0)
(1.01302 0.000748154 0)
(1.01301 0.000547181 0)
(1.00004 0.00026027 0)
(1.00022 0.000930859 0)
(1.00114 0.00135497 0)
(1.00213 0.00161101 0)
(1.00268 0.00225434 0)
(1.00319 0.00283821 0)
(1.00399 0.00296618 0)
(1.0044 0.00297875 0)
(1.00432 0.00318886 0)
(1.00425 0.00335299 0)
(1.00473 0.00322283 0)
(1.00554 0.00287044 0)
(1.00641 0.00250469 0)
(1.00719 0.00221425 0)
(1.00811 0.00192978 0)
(1.00926 0.00156528 0)
(1.0106 0.00112575 0)
(1.01184 0.000675578 0)
(1.01268 0.000285197 0)
(1.01272 -1.34934e-05 0)
(1.00004 0.000302292 0)
(1.00023 0.00102728 0)
(1.00112 0.00155703 0)
(1.00213 0.00185049 0)
(1.00274 0.0024631 0)
(1.00321 0.00308165 0)
(1.00392 0.00327624 0)
(1.00434 0.00327513 0)
(1.00429 0.00342497 0)
(1.00417 0.00358283 0)
(1.00452 0.00347487 0)
(1.00525 0.00309847 0)
(1.0061 0.00264825 0)
(1.00689 0.0022334 0)
(1.00777 0.00183357 0)
(1.00884 0.0013729 0)
(1.01012 0.000840181 0)
(1.01135 0.000281432 0)
(1.01221 -0.000226061 0)
(1.01231 -0.000646985 0)
(1.00003 0.000354325 0)
(1.00023 0.00112587 0)
(1.00108 0.00176199 0)
(1.00212 0.00210569 0)
(1.00279 0.00269024 0)
(1.00322 0.00332826 0)
(1.00384 0.00359927 0)