/*--------------------------------*- C++ -*----------------------------------*\
| =========                 |                                                 |
| \\      /  F ield         | OpenFOAM: The Open Source CFD Toolbox           |
|  \\    /   O peration     | Version:  v2012                                 |
|   \\  /    A nd           | Website:  www.openfoam.com                      |
|    \\/     M anipulation  |                                                 |
\*---------------------------------------------------------------------------*/
FoamFile
{
    version     2.0;
    format      ascii;
    class       surfaceScalarField;
    location    "1.75";
    object      phi;
}
// * * * * * * * * * * * * * * * * * * * * * * * * * * * * * * * * * * * * * //

dimensions      [0 3 -1 0 0 0 0];
oriented        oriented;


internalField   nonuniform List<scalar> 
34900
(
1.18471e-06
3.45726e-07
1.16393e-06
2.11444e-07
1.16081e-06
-1.66097e-07
1.15034e-06
-1.92989e-09
1.15416e-06
2.60495e-08
1.14452e-06
-2.76787e-08
1.14828e-06
1.38893e-08
1.1411e-06
-2.14137e-08
1.1466e-06
4.66024e-08
1.13844e-06
-5.81219e-08
1.14569e-06
8.60434e-08
1.13506e-06
-9.66688e-08
1.14463e-06
1.35419e-07
1.12994e-06
-9.79346e-08
1.14121e-06
1.27233e-07
1.1236e-06
-5.85462e-08
1.1351e-06
8.78972e-08
1.11588e-06
-2.96973e-08
1.12323e-06
8.01437e-08
-1.50884e-08
1.08016e-06
1.23695e-06
3.33037e-07
1.22067e-06
2.27723e-07
1.21582e-06
-1.61246e-07
1.20636e-06
7.52735e-09
1.20819e-06
2.42265e-08
1.20073e-06
-2.02235e-08
1.2017e-06
1.29242e-08
1.19799e-06
-1.77048e-08
1.19961e-06
4.49776e-08
1.1958e-06
-5.43137e-08
1.19746e-06
8.43822e-08
1.19325e-06
-9.24557e-08
1.19417e-06
1.345e-07
1.19002e-06
-9.37832e-08
1.18795e-06
1.29303e-07
1.18785e-06
-5.84446e-08
1.17892e-06
9.68245e-08
1.18536e-06
-3.61351e-08
1.16344e-06
1.02061e-07
-1.58677e-08
1.16422e-06
1.28992e-06
3.25896e-07
1.28119e-06
2.36454e-07
1.27228e-06
-1.52335e-07
1.26632e-06
1.34921e-08
1.26358e-06
2.69659e-08
1.26118e-06
-1.78277e-08
1.25715e-06
1.69593e-08
1.25877e-06
-1.93327e-08
1.25495e-06
4.88056e-08
1.25701e-06
-5.6376e-08
1.25293e-06
8.84621e-08
1.25483e-06
-9.43581e-08
1.25043e-06
1.389e-07
1.25235e-06
-9.56995e-08
1.24669e-06
1.34958e-07
1.25026e-06
-6.20154e-08
1.24283e-06
1.04261e-07
1.24517e-06
-3.84759e-08
1.23619e-06
1.11035e-07
-8.16043e-10
1.22114e-06
1.34455e-06
3.25451e-07
1.34547e-06
2.35533e-07
1.33191e-06
-1.38777e-07
1.32897e-06
1.64385e-08
1.32206e-06
3.38729e-08
1.32414e-06
-1.99103e-08
1.31642e-06
2.46777e-08
1.32133e-06
-2.42396e-08
1.31494e-06
5.51994e-08
1.31939e-06
-6.08325e-08
1.31441e-06
9.34402e-08
1.31731e-06
-9.72496e-08
1.31437e-06
1.41833e-07
1.31559e-06
-9.69181e-08
1.31385e-06
1.36702e-07
1.3141e-06
-6.22655e-08
1.3128e-06
1.05554e-07
1.30927e-06
-3.49412e-08
1.30735e-06
1.12952e-07
1.80775e-08
1.28846e-06
1.40263e-06
3.31172e-07
1.41245e-06
2.25717e-07
1.39586e-06
-1.22187e-07
1.3941e-06
1.82019e-08
1.3854e-06
4.25662e-08
1.38944e-06
-2.39502e-08
1.38122e-06
3.2904e-08
1.38615e-06
-2.91761e-08
1.38078e-06
6.05709e-08
1.38428e-06
-6.43327e-08
1.38164e-06
9.60764e-08
1.38284e-06
-9.84447e-08
1.38308e-06
1.41595e-07
1.38232e-06
-9.61646e-08
1.3838e-06
1.35231e-07
1.38175e-06
-6.02219e-08
1.38315e-06
1.0416e-07
1.37726e-06
-2.90562e-08
1.37739e-06
1.12825e-07
3.70595e-08
1.35841e-06
1.46593e-06
3.40916e-07
1.48143e-06
2.10217e-07
1.46477e-06
-1.05521e-07
1.46248e-06
2.04853e-08
1.45469e-06
5.03575e-08
1.45838e-06
-2.76375e-08
1.45206e-06
3.92197e-08
1.45531e-06
-3.2426e-08
1.45231e-06
6.35746e-08
1.45398e-06
-6.60036e-08
1.45364e-06
9.64129e-08
1.45327e-06
-9.80714e-08
1.45536e-06
1.39502e-07
1.45345e-06
-9.42538e-08
1.45635e-06
1.32333e-07
1.45315e-06
-5.70207e-08
1.45576e-06
1.01546e-07
1.44836e-06
-2.1656e-08
1.44992e-06
1.11269e-07
5.59848e-08
1.431e-06
1.53547e-06
3.51665e-07
1.55268e-06
1.92999e-07
1.53852e-06
-9.1352e-08
1.53522e-06
2.37791e-08
1.52973e-06
5.58453e-08
1.53217e-06
-3.00751e-08
1.52829e-06
4.31026e-08
1.52997e-06
-3.41114e-08
1.52877e-06
6.47761e-08
1.52919e-06
-6.64237e-08
1.53e-06
9.56031e-08
1.52876e-06
-9.683e-08
1.53161e-06
1.3665e-07
1.52897e-06
-9.16106e-08
1.53267e-06
1.28636e-07
1.52844e-06
-5.27906e-08
1.53207e-06
9.79087e-08
1.52316e-06
-1.27458e-08
1.52591e-06
1.08517e-07
7.44965e-08
1.5074e-06
1.61108e-06
3.60715e-07
1.62694e-06
1.77133e-07
1.61631e-06
-8.07169e-08
1.6127e-06
2.73854e-08
1.60945e-06
5.90941e-08
1.61087e-06
-3.14918e-08
1.60876e-06
4.52103e-08
1.60969e-06
-3.50396e-08
1.60937e-06
6.51024e-08
1.60919e-06
-6.62476e-08
1.61038e-06
9.441e-08
1.60863e-06
-9.50756e-08
1.61188e-06
1.33399e-07
1.60851e-06
-8.82384e-08
1.61293e-06
1.24216e-07
1.60753e-06
-4.73945e-08
1.61214e-06
9.32977e-08
1.60179e-06
-2.39916e-09
1.60532e-06
1.0499e-07
9.20323e-08
1.58779e-06
1.69174e-06
3.66545e-07
1.70479e-06
1.64083e-07
1.69729e-06
-7.32119e-08
1.69443e-06
3.0246e-08
1.6927e-06
6.08261e-08
1.69363e-06
-3.24298e-08
1.6925e-06
4.63412e-08
1.69328e-06
-3.58163e-08
1.69329e-06
6.50934e-08
1.69284e-06
-6.57986e-08
1.69417e-06
9.30829e-08
1.69199e-06
-9.28975e-08
1.69563e-06
1.29757e-07
1.69143e-06
-8.404e-08
1.69664e-06
1.19008e-07
1.68997e-06
-4.07256e-08
1.69547e-06
8.7801e-08
1.68391e-06
9.15757e-09
1.68773e-06
1.01177e-07
1.0802e-07
1.67174e-06
1.77634e-06
3.68922e-07
1.78648e-06
1.53948e-07
1.78107e-06
-6.78023e-08
1.77959e-06
3.17219e-08
1.77871e-06
6.17065e-08
1.77955e-06
-3.32646e-08
1.77889e-06
4.69999e-08
1.77974e-06
-3.66713e-08
1.77991e-06
6.49242e-08
1.77929e-06
-6.51712e-08
1.78076e-06
9.1604e-08
1.77815e-06
-9.02838e-08
1.7823e-06
1.2561e-07
1.77719e-06
-7.89341e-08
1.78327e-06
1.12929e-07
1.77533e-06
-3.27827e-08
1.78154e-06
8.15873e-08
1.76917e-06
2.15311e-08
1.77272e-06
9.76235e-08
1.21937e-07
1.75881e-06
1.86424e-06
3.68427e-07
1.87207e-06
1.46126e-07
1.86781e-06
-6.35436e-08
1.86773e-06
3.17992e-08
1.86731e-06
6.21285e-08
1.86819e-06
-3.41448e-08
1.86777e-06
4.74192e-08
1.8687e-06
-3.76026e-08
1.86903e-06
6.45954e-08
1.86821e-06
-6.4356e-08
1.86996e-06
8.98555e-08
1.86686e-06
-8.71837e-08
1.87165e-06
1.2082e-07
1.8656e-06
-7.28841e-08
1.87259e-06
1.05944e-07
1.8635e-06
-2.36982e-08
1.87016e-06
7.49291e-08
1.85749e-06
3.42001e-08
1.86023e-06
9.48892e-08
1.33382e-07
1.84878e-06
1.95539e-06
3.65874e-07
1.96163e-06
1.39889e-07
1.95795e-06
-5.98628e-08
1.9589e-06
3.08515e-08
1.95875e-06
6.22766e-08
1.95969e-06
-3.50825e-08
1.95943e-06
4.76782e-08
1.96034e-06
-3.85176e-08
1.96089e-06
6.40454e-08
1.95983e-06
-6.32926e-08
1.96199e-06
8.76955e-08
1.95833e-06
-8.35279e-08
1.96388e-06
1.15272e-07
1.9569e-06
-6.59033e-08
1.96474e-06
9.81034e-08
1.95478e-06
-1.37331e-08
1.96151e-06
6.81979e-08
1.94911e-06
4.65961e-08
1.95055e-06
9.34516e-08
1.4216e-07
1.94177e-06
2.05011e-06
3.6195e-07
2.05532e-06
1.34682e-07
2.05198e-06
-5.65221e-08
2.0535e-06
2.9332e-08
2.05356e-06
6.22155e-08
2.0545e-06
-3.60278e-08
2.05441e-06
4.77755e-08
2.05519e-06
-3.93007e-08
2.05605e-06
6.31894e-08
2.05465e-06
-6.18918e-08
2.05735e-06
8.4991e-08
2.05307e-06
-7.92431e-08
2.05944e-06
1.08893e-07
2.0516e-06
-5.80567e-08
2.06015e-06
8.95556e-08
2.04967e-06
-3.2543e-09
2.05602e-06
6.18461e-08
2.04445e-06
5.81689e-08
2.04428e-06
9.36148e-08
1.4835e-07
2.03809e-06
2.14886e-06
3.57095e-07
2.15335e-06
1.30194e-07
2.15031e-06
-5.34883e-08
2.15204e-06
2.76072e-08
2.15232e-06
6.19359e-08
2.15319e-06
-3.69028e-08
2.1533e-06
4.76612e-08
2.15384e-06
-3.98349e-08
2.1551e-06
6.19299e-08
2.15326e-06
-6.00502e-08
2.15662e-06
8.16302e-08
2.15164e-06
-7.42687e-08
2.15887e-06
1.0167e-07
2.15028e-06
-4.94681e-08
2.15929e-06
8.05456e-08
2.14873e-06
7.30435e-09
2.15422e-06
5.63539e-08
2.14393e-06
6.84569e-08
2.14207e-06
9.54766e-08
1.52273e-07
2.13815e-06
2.25205e-06
3.51534e-07
2.25594e-06
1.26302e-07
2.25328e-06
-5.08283e-08
2.25496e-06
2.5931e-08
2.25551e-06
6.1378e-08
2.25623e-06
-3.7615e-08
2.25663e-06
4.72529e-08
2.2568e-06
-4.00049e-08
2.25857e-06
6.01623e-08
2.25619e-06
-5.76659e-08
2.26029e-06
7.75313e-08
2.2546e-06
-6.858e-08
2.26261e-06
9.36603e-08
2.25348e-06
-4.03366e-08
2.26262e-06
7.14058e-08
2.25243e-06
1.74867e-08
2.25663e-06
5.21623e-08
2.24794e-06
7.71384e-08
2.24448e-06
9.89366e-08
1.54421e-07
2.24234e-06
2.36005e-06
3.45358e-07
2.36335e-06
1.23004e-07
2.36117e-06
-4.86518e-08
2.36262e-06
2.44815e-08
2.36355e-06
6.04496e-08
2.364e-06
-3.80615e-08
2.3648e-06
4.64476e-08
2.3645e-06
-3.96981e-08
2.36687e-06
5.77839e-08
2.36386e-06
-5.46542e-08
2.36874e-06
7.26534e-08
2.36237e-06
-6.22121e-08
2.37102e-06
8.50129e-08
2.36163e-06
-3.09488e-08
2.37052e-06
6.25188e-08
2.36111e-06
2.68921e-08
2.36369e-06
4.95838e-08
2.35674e-06
8.40885e-08
2.35198e-06
1.03702e-07
1.55379e-07
2.35102e-06
2.47317e-06
3.38588e-07
2.47582e-06
1.20351e-07
2.47425e-06
-4.70851e-08
2.47533e-06
2.34002e-08
2.47674e-06
5.90408e-08
2.47681e-06
-3.81327e-08
2.47813e-06
4.51329e-08
2.47724e-06
-3.88094e-08
2.48032e-06
5.47058e-08
2.47663e-06
-5.09652e-08
2.48227e-06
6.70115e-08
2.47534e-06
-5.52792e-08
2.48439e-06
7.59652e-08
2.4751e-06
-2.16645e-08
2.48333e-06
5.42863e-08
2.47503e-06
3.51961e-08
2.47585e-06
4.87672e-08
2.47053e-06
8.94023e-08
2.46492e-06
1.09319e-07
1.55743e-07
2.46455e-06
2.59167e-06
3.3121e-07
2.5936e-06
1.18422e-07
2.59278e-06
-4.62614e-08
2.59336e-06
2.28152e-08
2.59537e-06
5.70344e-08
2.59495e-06
-3.77173e-08
2.59689e-06
4.31991e-08
2.59533e-06
-3.72507e-08
2.59917e-06
5.08693e-08
2.5948e-06
-4.66023e-08
2.60112e-06
6.06916e-08
2.59383e-06
-4.79833e-08
2.60296e-06
6.68268e-08
2.59418e-06
-1.28762e-08
2.60138e-06
4.70851e-08
2.59441e-06
4.21681e-08
2.59349e-06
4.96867e-08
2.58952e-06
9.33661e-08
2.58359e-06
1.15251e-07
1.5604e-07
2.58329e-06
2.71584e-06
3.23202e-07
2.71696e-06
1.17301e-07
2.71701e-06
-4.63153e-08
2.71698e-06
2.28484e-08
2.7197e-06
5.43146e-08
2.71869e-06
-3.67108e-08
2.72134e-06
4.05541e-08
2.71905e-06
-3.49664e-08
2.72366e-06
4.62659e-08
2.7187e-06
-4.16438e-08
2.72552e-06
5.38665e-08
2.71815e-06
-4.06128e-08
2.72703e-06
5.795e-08
2.7191e-06
-4.95173e-09
2.72499e-06
4.1198e-08
2.71944e-06
4.77186e-08
2.717e-06
5.21318e-08
2.71397e-06
9.63908e-08
2.70822e-06
1.20998e-07
1.56647e-07
2.70762e-06
2.84594e-06
3.14535e-07
2.84616e-06
1.17079e-07
2.84722e-06
-4.73799e-08
2.84646e-06
2.36139e-08
2.85e-06
5.07753e-08
2.84831e-06
-3.50284e-08
2.85173e-06
3.71383e-08
2.84871e-06
-3.19513e-08
2.85402e-06
4.09583e-08
2.84864e-06
-3.62597e-08
2.8557e-06
4.68004e-08
2.84862e-06
-3.35247e-08
2.85688e-06
4.96833e-08
2.8501e-06
1.83546e-09
2.85454e-06
3.67508e-08
2.85035e-06
5.19125e-08
2.84671e-06
5.57663e-08
2.84421e-06
9.8899e-08
2.83899e-06
1.2621e-07
1.57741e-07
2.8379e-06
2.98225e-06
3.05178e-07
2.98149e-06
1.17844e-07
2.98369e-06
-4.95835e-08
2.98209e-06
2.52118e-08
2.98654e-06
4.63322e-08
2.98413e-06
-3.26207e-08
2.98832e-06
3.2944e-08
2.98464e-06
-2.82704e-08
2.9905e-06
3.50964e-08
2.98496e-06
-3.07149e-08
2.99193e-06
3.98292e-08
2.9855e-06
-2.7099e-08
2.99287e-06
4.23213e-08
2.98736e-06
7.34557e-09
2.99041e-06
3.36938e-08
2.98738e-06
5.49413e-08
2.98296e-06
6.01905e-08
2.98061e-06
1.01245e-07
2.97606e-06
1.30761e-07
1.59297e-07
2.97451e-06
3.12508e-06
2.95104e-07
3.12324e-06
1.19682e-07
3.1267e-06
-5.30452e-08
3.1242e-06
2.77199e-08
3.1296e-06
4.09329e-08
3.12646e-06
-2.94888e-08
3.13137e-06
2.80335e-08
3.12718e-06
-2.40766e-08
3.13335e-06
2.89289e-08
3.128e-06
-2.53664e-08
3.1345e-06
3.33289e-08
3.12907e-06
-2.16733e-08
3.13535e-06
3.60411e-08
3.13111e-06
1.15921e-08
3.13298e-06
3.1823e-08
3.13087e-06
5.70469e-08
3.12608e-06
6.49812e-08
3.12364e-06
1.03682e-07
3.11959e-06
1.34814e-07
1.61135e-07
3.11775e-06
3.27473e-06
2.84289e-07
3.27173e-06
1.22673e-07
3.27656e-06
-5.78695e-08
3.27309e-06
3.11834e-08
3.27946e-06
3.45726e-08
3.27567e-06
-2.57035e-08
3.28114e-06
2.25589e-08
3.27669e-06
-1.9626e-08
3.28282e-06
2.27985e-08
3.27808e-06
-2.06206e-08
3.28377e-06
2.76381e-08
3.27953e-06
-1.74298e-08
3.28477e-06
3.07981e-08
3.28159e-06
1.47687e-08
3.28262e-06
3.07965e-08
3.28124e-06
5.8425e-08
3.27652e-06
6.97004e-08
3.27389e-06
1.06318e-07
3.26981e-06
1.38887e-07
1.62993e-07
3.26795e-06
3.43151e-06
2.72714e-07
3.42729e-06
1.26891e-07
3.43356e-06
-6.41395e-08
3.42914e-06
3.5601e-08
3.4364e-06
2.73112e-08
3.43213e-06
-2.14266e-08
3.43791e-06
1.678e-08
3.43356e-06
-1.52777e-08
3.43925e-06
1.71075e-08
3.43548e-06
-1.68556e-08
3.44016e-06
2.29617e-08
3.43706e-06
-1.43257e-08
3.44154e-06
2.63096e-08
3.43912e-06
1.71954e-08
3.43975e-06
3.01653e-08
3.43908e-06
5.90975e-08
3.43492e-06
7.38603e-08
3.43217e-06
1.09061e-07
3.42742e-06
1.4364e-07
1.65025e-07
3.42539e-06
3.59576e-06
2.6037e-07
3.59026e-06
1.32387e-07
3.59802e-06
-7.19008e-08
3.59272e-06
4.09049e-08
3.60073e-06
1.92958e-08
3.59623e-06
-1.69288e-08
3.60195e-06
1.10652e-08
3.59814e-06
-1.14669e-08
3.60298e-06
1.2262e-08
3.60047e-06
-1.434e-08
3.60414e-06
1.92941e-08
3.6019e-06
-1.20942e-08
3.60606e-06
2.21505e-08
3.6041e-06
1.91547e-08
3.60481e-06
2.94582e-08
3.60481e-06
5.90983e-08
3.60139e-06
7.72791e-08
3.59869e-06
1.11757e-07
3.59448e-06
1.47859e-07
1.69419e-07
3.59008e-06
3.76782e-06
2.47259e-07
3.76101e-06
1.39193e-07
3.77026e-06
-8.11469e-08
3.76422e-06
4.69389e-08
3.77274e-06
1.07774e-08
3.76841e-06
-1.25958e-08
3.7736e-06
5.87746e-09
3.77079e-06
-8.6603e-09
3.77446e-06
8.59211e-09
3.77326e-06
-1.31387e-08
3.77615e-06
1.64012e-08
3.77443e-06
-1.03771e-08
3.77858e-06
1.80046e-08
3.77704e-06
2.06962e-08
3.77781e-06
2.86828e-08
3.77632e-06
6.05868e-08
3.7719e-06
8.17067e-08
3.76933e-06
1.14325e-07
3.76878e-06
1.48408e-07
1.7662e-07
3.76158e-06
3.94805e-06
2.33398e-07
3.93994e-06
1.47302e-07
3.95059e-06
-9.17972e-08
3.9441e-06
5.34347e-08
3.95274e-06
2.13198e-09
3.94908e-06
-8.93512e-09
3.95322e-06
1.74237e-09
3.95183e-06
-7.27572e-09
3.95417e-06
6.25226e-09
3.95409e-06
-1.30549e-08
3.9566e-06
1.38833e-08
3.95507e-06
-8.84618e-09
3.95914e-06
1.39422e-08
3.95772e-06
2.21163e-08
3.95478e-06
3.16165e-08
3.95054e-06
6.48323e-08
3.94561e-06
8.66289e-08
3.94291e-06
1.17029e-07
3.94149e-06
1.49826e-07
1.78449e-07
3.93966e-06
4.13683e-06
2.18818e-07
4.12748e-06
1.56654e-07
4.13935e-06
-1.03668e-07
4.13279e-06
5.99937e-08
4.14107e-06
-6.14844e-09
4.13867e-06
-6.53479e-09
4.14124e-06
-8.28322e-10
4.14154e-06
-7.57346e-09
4.14264e-06
5.15431e-09
4.14323e-06
-1.36489e-08
4.14581e-06
1.13076e-08
4.14395e-06
-6.98769e-09
4.14679e-06
1.10964e-08
4.14228e-06
2.6632e-08
4.13616e-06
3.77304e-08
4.13236e-06
6.86345e-08
4.1279e-06
9.10889e-08
4.1253e-06
1.19633e-07
4.12359e-06
1.51537e-07
1.77018e-07
4.12502e-06
4.33455e-06
2.03575e-07
4.32408e-06
1.67118e-07
4.33686e-06
-1.16443e-07
4.33077e-06
6.60761e-08
4.33811e-06
-1.34818e-08
4.33755e-06
-5.97252e-09
4.33819e-06
-1.46976e-09
4.34015e-06
-9.53859e-09
4.34034e-06
4.97102e-09
4.34098e-06
-1.42944e-08
4.34357e-06
8.71838e-09
4.33989e-06
-3.30956e-09
4.3387e-06
1.22845e-08
4.33354e-06
3.17921e-08
4.32751e-06
4.37664e-08
4.32398e-06
7.21588e-08
4.32012e-06
9.49503e-08
4.31796e-06
1.21792e-07
4.31696e-06
1.52536e-07
1.74597e-07
4.31938e-06
4.5416e-06
1.87749e-07
4.53024e-06
1.78474e-07
4.54346e-06
-1.29656e-07
4.53851e-06
7.10203e-08
4.54429e-06
-1.92541e-08
4.54604e-06
-7.7222e-09
4.54462e-06
-5.72372e-11
4.54787e-06
-1.2786e-08
4.54766e-06
5.17905e-09
4.54722e-06
-1.38514e-08
4.54879e-06
7.14369e-09
4.54252e-06
2.96864e-09
4.53906e-06
1.57391e-08
4.53472e-06
3.61306e-08
4.52922e-06
4.9273e-08
4.52571e-06
7.56635e-08
4.52234e-06
9.83211e-08
4.52067e-06
1.23466e-07
4.52096e-06
1.52241e-07
1.72376e-07
4.52318e-06
4.75842e-06
1.71441e-07
4.74648e-06
1.90416e-07
4.75952e-06
-1.42693e-07
4.75644e-06
7.40957e-08
4.7601e-06
-2.29093e-08
4.76439e-06
-1.20185e-08
4.76114e-06
3.19243e-09
4.76484e-06
-1.64818e-08
4.76463e-06
5.3843e-09
4.76158e-06
-1.08017e-08
4.76138e-06
7.34431e-09
4.7544e-06
9.94744e-09
4.74984e-06
2.03078e-08
4.74619e-06
3.97787e-08
4.74131e-06
5.41463e-08
4.7378e-06
7.91773e-08
4.7348e-06
1.01327e-07
4.73359e-06
1.24672e-07
4.73496e-06
1.50871e-07
1.70375e-07
4.73696e-06
4.98546e-06
1.54781e-07
4.97332e-06
2.02551e-07
4.98543e-06
-1.54804e-07
4.98495e-06
7.45792e-08
4.9861e-06
-2.4055e-08
4.99281e-06
-1.87371e-08
4.98827e-06
7.73769e-09
4.9911e-06
-1.93079e-08
4.99077e-06
5.70722e-09
4.98463e-06
-4.65621e-09
4.98331e-06
8.65688e-09
4.97688e-06
1.63857e-08
4.97159e-06
2.55975e-08
4.96821e-06
4.31532e-08
4.96398e-06
5.83784e-08
4.96059e-06
8.25634e-08
4.95791e-06
1.04006e-07
4.95715e-06
1.25434e-07
4.95891e-06
1.49109e-07
1.68015e-07
4.96127e-06
5.22318e-06
1.37919e-07
5.21131e-06
2.14418e-07
5.22166e-06
-1.65151e-07
5.22436e-06
7.18756e-08
5.22288e-06
-2.25709e-08
5.23148e-06
-2.73435e-08
5.22625e-06
1.29772e-08
5.22674e-06
-1.97983e-08
5.22616e-06
6.28471e-09
5.218e-06
3.50504e-09
5.21572e-06
1.09375e-08
5.21042e-06
2.1681e-08
5.20477e-06
3.12458e-08
5.20122e-06
4.67077e-08
5.19754e-06
6.20602e-08
5.19448e-06
8.56164e-08
5.19219e-06
1.06296e-07
5.19169e-06
1.25939e-07
5.19357e-06
1.47226e-07
1.651e-07
5.19649e-06
5.47208e-06
1.21023e-07
5.461e-06
2.25505e-07
5.46876e-06
-1.7291e-07
5.47494e-06
6.56967e-08
5.47101e-06
-1.86469e-08
5.48059e-06
-3.69181e-08
5.47496e-06
1.86022e-08
5.47229e-06
-1.71275e-08
5.4718e-06
6.77287e-09
5.46286e-06
1.24473e-08
5.45941e-06
1.43865e-08
5.45539e-06
2.57045e-08
5.44978e-06
3.68534e-08
5.44577e-06
5.0719e-08
5.44245e-06
6.53825e-08
5.4399e-06
8.81618e-08
5.43809e-06
1.08106e-07
5.4377e-06
1.26334e-07
5.43964e-06
1.45279e-07
1.61702e-07
5.44304e-06
5.73271e-06
1.04271e-07
5.72292e-06
2.35296e-07
5.72748e-06
-1.77471e-07
5.7369e-06
5.62772e-08
5.73094e-06
-1.26899e-08
5.74031e-06
-4.62821e-08
5.73448e-06
2.44272e-08
5.72881e-06
-1.14539e-08
5.72877e-06
6.80991e-09
5.71998e-06
2.12341e-08
5.71517e-06
1.92008e-08
5.71214e-06
2.87364e-08
5.70699e-06
4.20007e-08
5.70249e-06
5.52206e-08
5.69928e-06
6.85931e-08
5.69731e-06
9.01272e-08
5.69605e-06
1.09369e-07
5.69576e-06
1.26622e-07
5.69774e-06
1.43303e-07
1.5796e-07
5.70148e-06
6.00562e-06
8.7843e-08
5.99762e-06
2.43295e-07
5.99866e-06
-1.78508e-07
6.01059e-06
4.43442e-08
6.00293e-06
-5.03262e-09
6.01107e-06
-5.4421e-08
6.00565e-06
2.98547e-08
5.9974e-06
-3.20964e-09
5.99778e-06
6.42872e-09
5.98996e-06
2.90592e-08
5.98375e-06
2.5406e-08
5.98113e-06
3.13587e-08
5.97678e-06
4.63466e-08
5.97199e-06
6.00103e-08
5.96866e-06
7.19241e-08
5.96723e-06
9.15559e-08
5.96656e-06
1.10049e-07
5.96648e-06
1.26699e-07
5.96846e-06
1.41322e-07
1.54016e-07
5.9724e-06
6.29141e-06
7.19176e-08
6.28564e-06
2.49069e-07
6.28311e-06
-1.7598e-07
6.29658e-06
3.08771e-08
6.28734e-06
4.20798e-09
6.29359e-06
-6.0667e-08
6.2895e-06
3.3937e-08
6.27904e-06
7.25574e-09
6.27946e-06
6.0059e-09
6.27322e-06
3.5299e-08
6.26585e-06
3.27749e-08
6.26301e-06
3.41985e-08
6.25958e-06
4.97753e-08
6.25486e-06
6.47315e-08
6.25128e-06
7.55015e-08
6.25025e-06
9.25881e-08
6.25014e-06
1.1016e-07
6.25042e-06
1.26417e-07
6.25243e-06
1.39316e-07
1.49991e-07
6.25646e-06
6.59071e-06
5.66726e-08
6.58753e-06
2.52251e-07
6.5816e-06
-1.70045e-07
6.5957e-06
1.67698e-08
6.58505e-06
1.48599e-08
6.58891e-06
-6.45223e-08
6.58688e-06
3.59653e-08
6.57475e-06
1.93846e-08
6.5745e-06
6.25912e-09
6.57018e-06
3.96195e-08
6.56211e-06
4.08376e-08
6.55852e-06
3.77939e-08
6.55591e-06
5.23855e-08
6.55163e-06
6.90066e-08
6.54784e-06
7.92901e-08
6.54702e-06
9.3416e-08
6.5474e-06
1.09779e-07
6.54818e-06
1.25635e-07
6.55029e-06
1.37209e-07
1.45964e-07
6.55431e-06
6.90418e-06
4.22826e-08
6.90384e-06
2.52586e-07
6.89481e-06
-1.6101e-07
6.9089e-06
2.67948e-09
6.89717e-06
2.65916e-08
6.89817e-06
-6.55222e-08
6.89838e-06
3.57511e-08
6.88541e-06
3.23552e-08
6.88367e-06
8.00457e-09
6.88126e-06
4.20243e-08
6.87315e-06
4.8948e-08
6.86845e-06
4.24942e-08
6.86638e-06
5.44555e-08
6.86285e-06
7.25403e-08
6.85904e-06
8.30925e-08
6.85822e-06
9.42405e-08
6.85897e-06
1.09031e-07
6.86034e-06
1.24264e-07
6.86266e-06
1.34887e-07
1.41962e-07
6.86666e-06
7.23251e-06
2.89129e-08
7.23512e-06
2.49976e-07
7.22338e-06
-1.49276e-07
7.23708e-06
-1.10205e-08
7.22474e-06
3.8938e-08
7.22229e-06
-6.3079e-08
7.22457e-06
3.34703e-08
7.21167e-06
4.52569e-08
7.20785e-06
1.18263e-08
7.20702e-06
4.28583e-08
7.1995e-06
5.64604e-08
7.19365e-06
4.83449e-08
7.19172e-06
5.63917e-08
7.18907e-06
7.51859e-08
7.18557e-06
8.65912e-08
7.1846e-06
9.52175e-08
7.18556e-06
1.08062e-07
7.18754e-06
1.22292e-07
7.1902e-06
1.32223e-07
1.37956e-07
7.19421e-06
7.57642e-06
1.67227e-08
7.58195e-06
2.44443e-07
7.5679e-06
-1.35226e-07
7.58108e-06
-2.42065e-08
7.56871e-06
5.13108e-08
7.56231e-06
-5.66777e-08
7.56608e-06
2.96983e-08
7.55413e-06
5.72111e-08
7.548e-06
1.79519e-08
7.54808e-06
4.27843e-08
7.54171e-06
6.2831e-08
7.53495e-06
5.50961e-08
7.53272e-06
5.86269e-08
7.53093e-06
7.69736e-08
7.52809e-06
8.94343e-08
7.52691e-06
9.6399e-08
7.52795e-06
1.07016e-07
7.53046e-06
1.19787e-07
7.53356e-06
1.29119e-07
1.33873e-07
7.53764e-06
7.93667e-06
5.86171e-09
7.94489e-06
2.36229e-07
7.9291e-06
-1.19438e-07
7.94157e-06
-3.66787e-08
7.92984e-06
6.30455e-08
7.91927e-06
-4.61108e-08
7.92361e-06
2.53565e-08
7.91334e-06
6.74812e-08
7.90503e-06
2.6261e-08
7.90524e-06
4.25718e-08
7.90032e-06
6.77539e-08
7.89312e-06
6.22953e-08
7.89026e-06
6.14887e-08
7.88914e-06
7.80952e-08
7.88722e-06
9.13536e-08
7.88593e-06
9.76881e-08
7.88695e-06
1.05998e-07
7.88985e-06
1.1689e-07
7.89343e-06
1.25529e-07
1.29614e-07
7.89769e-06
8.31407e-06
-3.52714e-09
8.32474e-06
2.25555e-07
8.30756e-06
-1.02254e-07
8.31909e-06
-4.82044e-08
8.30873e-06
7.33985e-08
8.29416e-06
-3.15337e-08
8.29798e-06
2.15367e-08
8.28988e-06
7.55749e-08
8.27982e-06
3.63248e-08
8.27944e-06
4.29532e-08
8.276e-06
7.11913e-08
8.26888e-06
6.94155e-08
8.26525e-06
6.51146e-08
8.26451e-06
7.88396e-08
8.2636e-06
9.22604e-08
8.26244e-06
9.88493e-08
8.26339e-06
1.05052e-07
8.26651e-06
1.13765e-07
8.27056e-06
1.21479e-07
1.25082e-07
8.27509e-06
8.70945e-06
-1.13129e-08
8.72248e-06
2.12521e-07
8.70376e-06
-8.3536e-08
8.7142e-06
-5.86441e-08
8.70591e-06
8.16876e-08
8.68789e-06
-1.35081e-08
8.69008e-06
1.93405e-08
8.68437e-06
8.1292e-08
8.67322e-06
4.7469e-08
8.67161e-06
4.45705e-08
8.6695e-06
7.33017e-08
8.66292e-06
7.59905e-08
8.65859e-06
6.94407e-08
8.65795e-06
7.94863e-08
8.65794e-06
9.22694e-08
8.65721e-06
9.95789e-08
8.65813e-06
1.04127e-07
8.66134e-06
1.10562e-07
8.66576e-06
1.17056e-07
1.20218e-07
8.67062e-06
9.1237e-06
-1.73931e-08
9.1388e-06
1.97418e-07
9.11884e-06
-6.35776e-08
9.12718e-06
-6.69805e-08
9.12185e-06
8.70182e-08
9.10136e-06
6.97799e-09
9.101e-06
1.97014e-08
9.09744e-06
8.48547e-08
9.08603e-06
5.88751e-08
9.08279e-06
4.78118e-08
9.08166e-06
7.44371e-08
9.07598e-06
8.16658e-08
9.07118e-06
7.42427e-08
9.07041e-06
8.02599e-08
9.07105e-06
9.16271e-08
9.07101e-06
9.96205e-08
9.07204e-06
1.03097e-07
9.07522e-06
1.07375e-07
9.0799e-06
1.12385e-07
1.1502e-07
9.08509e-06
9.55777e-06
-2.17008e-08
9.57425e-06
1.80934e-07
9.55351e-06
-4.28328e-08
9.55889e-06
-7.23678e-08
9.55696e-06
8.89481e-08
9.53537e-06
2.85693e-08
9.53187e-06
2.32045e-08
9.52991e-06
8.6818e-08
9.51896e-06
6.98204e-08
9.51409e-06
5.2686e-08
9.51339e-06
7.51312e-08
9.50885e-06
8.62126e-08
9.50389e-06
7.9199e-08
9.50282e-06
8.13353e-08
9.50387e-06
9.05721e-08
9.50463e-06
9.88637e-08
9.50594e-06
1.01784e-07
9.5091e-06
1.04216e-07
9.5139e-06
1.07582e-07
1.09533e-07
9.51939e-06
1.00127e-05
-2.42291e-08
1.003e-05
1.63629e-07
1.0009e-05
-2.18502e-08
1.00104e-05
-7.37932e-08
1.00118e-05
8.75837e-08
9.99064e-06
4.97012e-08
9.98384e-06
3.00082e-08
9.98273e-06
8.7923e-08
9.97274e-06
7.98109e-08
9.96651e-06
5.89208e-08
9.96573e-06
7.59144e-08
9.96236e-06
8.9575e-08
9.95761e-06
8.3956e-08
9.95616e-06
8.27866e-08
9.95741e-06
8.93218e-08
9.95894e-06
9.73301e-08
9.9607e-06
1.0002e-07
9.9639e-06
1.01023e-07
9.96874e-06
1.02736e-07
1.03835e-07
9.97444e-06
1.04894e-05
-2.50391e-08
1.05072e-05
1.45829e-07
1.04863e-05
-9.44426e-10
1.04831e-05
-7.05806e-08
1.04871e-05
8.35683e-08
1.04679e-05
6.89765e-08
1.0458e-05
3.98319e-08
1.0457e-05
8.89623e-08
1.04482e-05
8.85838e-08
1.0441e-05
6.61764e-08
1.04398e-05
7.71411e-08
1.04374e-05
9.18825e-08
1.04332e-05
8.81955e-08
1.04315e-05
8.45401e-08
1.04327e-05
8.80938e-08
1.04349e-05
9.51221e-08
1.04372e-05
9.7684e-08
1.04406e-05
9.76884e-08
1.04454e-05
9.78825e-08
9.80075e-08
1.04512e-05
1.09893e-05
-2.42735e-08
1.10076e-05
1.27507e-07
1.09867e-05
1.99771e-08
1.09785e-05
-6.24376e-08
1.09842e-05
7.7846e-08
1.09678e-05
8.53867e-08
1.09556e-05
5.20696e-08
1.09539e-05
9.06478e-08
1.09464e-05
9.61055e-08
1.09385e-05
7.40971e-08
1.09366e-05
7.90128e-08
1.09351e-05
9.33692e-08
1.09316e-05
9.16863e-08
1.09298e-05
8.63919e-08
1.09308e-05
8.70771e-08
1.09335e-05
9.23832e-08
1.09365e-05
9.47266e-08
1.09401e-05
9.40895e-08
1.09449e-05
9.30064e-08
9.21144e-08
1.09508e-05
1.15132e-05
-2.21203e-08
1.153e-05
1.10725e-07
1.15115e-05
3.84684e-08
1.14985e-05
-4.94073e-08
1.15044e-05
7.19538e-08
1.14913e-05
9.84859e-08
1.14775e-05
6.57984e-08
1.14746e-05
9.3555e-08
1.14682e-05
1.02534e-07
1.146e-05
8.23025e-08
1.14573e-05
8.16825e-08
1.14564e-05
9.4296e-08
1.14538e-05
9.43093e-08
1.14521e-05
8.80956e-08
1.14528e-05
8.63517e-08
1.14559e-05
8.92792e-08
1.14595e-05
9.11748e-08
1.14634e-05
9.01144e-08
1.14684e-05
8.80457e-08
8.61802e-08
1.14743e-05
1.20625e-05
-1.88206e-08
1.20771e-05
9.61215e-08
1.2061e-05
5.45732e-08
1.20444e-05
-3.27712e-08
1.20491e-05
6.72608e-08
1.20392e-05
1.08339e-07
1.20249e-05
8.01261e-08
1.20205e-05
9.79718e-08
1.20148e-05
1.08217e-07
1.20067e-05
9.04354e-08
1.20031e-05
8.52114e-08
1.20025e-05
9.49559e-08
1.20007e-05
9.60449e-08
1.19994e-05
8.94722e-08
1.19999e-05
8.57791e-08
1.20032e-05
8.60213e-08
1.20073e-05
8.71094e-08
1.20117e-05
8.56904e-08
1.20168e-05
8.29102e-08
8.01811e-08
1.20228e-05
1.26384e-05
-1.46485e-08
1.26504e-05
8.4136e-08
1.26369e-05
6.80648e-08
1.26175e-05
-1.33195e-08
1.26199e-05
6.48583e-08
1.26128e-05
1.15388e-07
1.25987e-05
9.42708e-08
1.25927e-05
1.03915e-07
1.25874e-05
1.13593e-07
1.25795e-05
9.82423e-08
1.25752e-05
8.95163e-08
1.25745e-05
9.56654e-08
1.25736e-05
9.69842e-08
1.25726e-05
9.04372e-08
1.25734e-05
8.50481e-08
1.25765e-05
8.28313e-08
1.25811e-05
8.26026e-08
1.25859e-05
8.08295e-08
1.25913e-05
7.75045e-08
7.40509e-08
1.25975e-05
1.32422e-05
-9.89315e-09
1.32518e-05
7.44967e-08
1.32403e-05
7.96232e-08
1.32191e-05
7.85967e-09
1.32182e-05
6.56906e-08
1.32133e-05
1.20317e-07
1.31999e-05
1.07654e-07
1.31926e-05
1.11234e-07
1.31872e-05
1.19045e-07
1.31798e-05
1.05643e-07
1.31749e-05
9.44146e-08
1.31739e-05
9.66729e-08
1.31735e-05
9.7349e-08
1.3173e-05
9.09096e-08
1.31741e-05
8.39442e-08
1.31772e-05
7.97925e-08
1.31821e-05
7.76587e-08
1.31873e-05
7.56709e-08
1.3193e-05
7.17319e-08
6.76974e-08
1.31994e-05
1.38751e-05
-4.82921e-09
1.38818e-05
6.77571e-08
1.38723e-05
8.91529e-08
1.38505e-05
2.96878e-08
1.38459e-05
7.02596e-08
1.38421e-05
1.2414e-07
1.38298e-05
1.19899e-07
1.38214e-05
1.19697e-07
1.38156e-05
1.24822e-07
1.38085e-05
1.12735e-07
1.38032e-05
9.97091e-08
1.38018e-05
9.81014e-08
1.38017e-05
9.74125e-08
1.38018e-05
9.08402e-08
1.38033e-05
8.24661e-08
1.38063e-05
7.67582e-08
1.38117e-05
7.22954e-08
1.3817e-05
7.03685e-08
1.38232e-05
6.55362e-08
6.10025e-08
1.38299e-05
1.45385e-05
3.15818e-10
1.4542e-05
6.43176e-08
1.45345e-05
9.65783e-08
1.45127e-05
5.15239e-08
1.45046e-05
7.83848e-08
1.45006e-05
1.28072e-07
1.44896e-05
1.30897e-07
1.44803e-05
1.29013e-07
1.4474e-05
1.31111e-07
1.44671e-05
1.19688e-07
1.44615e-05
1.05259e-07
1.44596e-05
1.00016e-07
1.44597e-05
9.73739e-08
1.44602e-05
9.02999e-08
1.4462e-05
8.07146e-08
1.44653e-05
7.33992e-08
1.44708e-05
6.68462e-08
1.44766e-05
6.45738e-08
1.44829e-05
5.91559e-08
5.37626e-08
1.44902e-05
1.52338e-05
5.39661e-09
1.52347e-05
6.34553e-08
1.5228e-05
1.03207e-07
1.52069e-05
7.26999e-08
1.51957e-05
8.95318e-08
1.51907e-05
1.33126e-07
1.51806e-05
1.40914e-07
1.51708e-05
1.3882e-07
1.51638e-05
1.38104e-07
1.51569e-05
1.26657e-07
1.51511e-05
1.1102e-07
1.51487e-05
1.02452e-07
1.51487e-05
9.73868e-08
1.51495e-05
8.94727e-08
1.51515e-05
7.86965e-08
1.51554e-05
6.95482e-08
1.51605e-05
6.17089e-08
1.51673e-05
5.77634e-08
1.51738e-05
5.26152e-08
4.62046e-08
1.51814e-05
1.59624e-05
1.03631e-08
1.59605e-05
6.52742e-08
1.59543e-05
1.09417e-07
1.59343e-05
9.26898e-08
1.59206e-05
1.03229e-07
1.59139e-05
1.39852e-07
1.59043e-05
1.50511e-07
1.58943e-05
1.48856e-07
1.58865e-05
1.45899e-07
1.58793e-05
1.33845e-07
1.58733e-05
1.17018e-07
1.58703e-05
1.05428e-07
1.58701e-05
9.76186e-08
1.5871e-05
8.85376e-08
1.58733e-05
7.64244e-08
1.58775e-05
6.53476e-08
1.58826e-05
5.65788e-08
1.58899e-05
5.04965e-08
1.58977e-05
4.47971e-08
3.91776e-08
1.59047e-05
1.67258e-05
1.52005e-08
1.67213e-05
6.97381e-08
1.67152e-05
1.15529e-07
1.66965e-05
1.11357e-07
1.66808e-05
1.18951e-07
1.66721e-05
1.48517e-07
1.66624e-05
1.60256e-07
1.66521e-05
1.5914e-07
1.66435e-05
1.54477e-07
1.66359e-05
1.41473e-07
1.66295e-05
1.23383e-07
1.6626e-05
1.08961e-07
1.66254e-05
9.82652e-08
1.66262e-05
8.76539e-08
1.66287e-05
7.39908e-08
1.66329e-05
6.1102e-08
1.66386e-05
5.08653e-08
1.66461e-05
4.29845e-08
1.66544e-05
3.65206e-08
3.09757e-08
1.66626e-05
1.75256e-05
1.99155e-08
1.75202e-05
7.52072e-08
1.75125e-05
1.23237e-07
1.74948e-05
1.28984e-07
1.74777e-05
1.36097e-07
1.7467e-05
1.59249e-07
1.74566e-05
1.70629e-07
1.74459e-05
1.69877e-07
1.74365e-05
1.63861e-07
1.74282e-05
1.49722e-07
1.74213e-05
1.30321e-07
1.74171e-05
1.13139e-07
1.74159e-05
9.95148e-08
1.74165e-05
8.70431e-08
1.74189e-05
7.15622e-08
1.74232e-05
5.67681e-08
1.74295e-05
4.46118e-08
1.74373e-05
3.51195e-08
1.74462e-05
2.76607e-08
2.15528e-08
1.74556e-05
1.83637e-05
2.45617e-08
1.83566e-05
8.22773e-08
1.83479e-05
1.31981e-07
1.8331e-05
1.45851e-07
1.83129e-05
1.54202e-07
1.83001e-05
1.72061e-07
1.82887e-05
1.82061e-07
1.82772e-05
1.813e-07
1.82669e-05
1.7416e-07
1.82579e-05
1.58789e-07
1.82501e-05
1.38053e-07
1.82451e-05
1.18181e-07
1.8243e-05
1.01581e-07
1.82431e-05
8.69631e-08
1.82454e-05
6.93148e-08
1.82498e-05
5.23402e-08
1.82564e-05
3.79806e-08
1.82649e-05
2.66751e-08
1.82746e-05
1.79516e-08
1.10715e-08
1.82851e-05
1.92418e-05
2.91972e-08
1.92336e-05
9.04447e-08
1.92234e-05
1.42183e-07
1.92069e-05
1.62345e-07
1.91881e-05
1.72956e-07
1.91733e-05
1.86867e-07
1.91605e-05
1.94916e-07
1.91481e-05
1.93662e-07
1.91367e-05
1.85569e-07
1.91265e-05
1.68955e-07
1.91177e-05
1.46847e-07
1.91115e-05
1.24406e-07