/*--------------------------------*- C++ -*----------------------------------*\
| =========                 |                                                 |
| \\      /  F ield         | OpenFOAM: The Open Source CFD Toolbox           |
|  \\    /   O peration     | Version:  v2012                                 |
|   \\  /    A nd           | Website:  www.openfoam.com                      |
|    \\/     M anipulation  |                                                 |
\*---------------------------------------------------------------------------*/
FoamFile
{
    version     2.0;
    format      ascii;
    class       volScalarField;
    location    "1.55";
    object      p;
}
// * * * * * * * * * * * * * * * * * * * * * * * * * * * * * * * * * * * * * //

dimensions      [0 2 -2 0 0 0 0];


internalField   nonuniform List<scalar> 
17600
(
-1.16718e-10
-0.0009578
-0.00124939
-0.00204244
-0.00317666
-0.00295558
-0.00354866
-0.00336945
-0.00403328
-0.00450946
-0.00474575
-0.00468903
-0.00498633
-0.00483225
-0.00467606
-0.00394811
-0.00331725
-0.00173718
0.000126561
0.00387991
6.17006e-07
-0.000959563
-0.00124833
-0.00204412
-0.0031753
-0.00295574
-0.00354523
-0.00337061
-0.00403136
-0.0045114
-0.00474391
-0.00469363
-0.00498412
-0.00484137
-0.00467273
-0.0039717
-0.00330956
-0.00180128
0.0001386
0.00356955
7.45245e-07
-0.000962256
-0.0012466
-0.00204634
-0.00317213
-0.00295614
-0.00354132
-0.00337298
-0.00402836
-0.00451477
-0.00474147
-0.00470035
-0.00498108
-0.00485352
-0.00466898
-0.00399855
-0.00330136
-0.00186948
0.000135134
0.0031474
-2.67695e-07
-0.000965377
-0.00124482
-0.00204808
-0.00316739
-0.00295667
-0.00353746
-0.00337581
-0.00402535
-0.00451828
-0.00473939
-0.00470728
-0.00497837
-0.00486661
-0.00466575
-0.00402662
-0.00329544
-0.00193757
0.000101355
0.00273375
-2.42495e-06
-0.000969016
-0.00124291
-0.00204908
-0.00316108
-0.00295752
-0.00353352
-0.00337914
-0.00402229
-0.00452201
-0.00473745
-0.00471473
-0.00497559
-0.00488116
-0.00466218
-0.00405718
-0.00329145
-0.00200981
3.61297e-05
0.00234251
-5.60589e-06
-0.000973182
-0.00124068
-0.00204926
-0.00315344
-0.0029589
-0.00352946
-0.00338304
-0.00401902
-0.00452621
-0.00473536
-0.00472294
-0.0049725
-0.00489727
-0.00465828
-0.00409036
-0.00329047
-0.00208695
-5.89803e-05
0.00197589
-9.62574e-06
-0.000977747
-0.00123799
-0.00204863
-0.0031449
-0.00296085
-0.00352528
-0.00338742
-0.00401548
-0.00453097
-0.00473298
-0.00473193
-0.00496907
-0.00491486
-0.00465459
-0.00412554
-0.00329462
-0.00216789
-0.000182581
0.00162942
-1.42426e-05
-0.000982565
-0.00123479
-0.00204734
-0.00313582
-0.00296328
-0.00352092
-0.0033921
-0.00401165
-0.00453629
-0.00473024
-0.00474173
-0.00496541
-0.00493382
-0.00465177
-0.00416187
-0.00330634
-0.00225122
-0.000333805
0.0012966
-1.92281e-05
-0.000987548
-0.0012311
-0.00204556
-0.00312643
-0.00296603
-0.00351628
-0.00339702
-0.00400754
-0.00454221
-0.00472714
-0.00475234
-0.0049617
-0.00495396
-0.00465059
-0.00419845
-0.00332791
-0.0023362
-0.000511354
0.000970943
-2.44273e-05
-0.000992669
-0.00122696
-0.00204348
-0.00311682
-0.00296898
-0.00351131
-0.00340214
-0.00400316
-0.00454875
-0.00472371
-0.00476373
-0.00495819
-0.00497491
-0.00465199
-0.00423447
-0.00336107
-0.00242301
-0.000712777
0.000646727
-2.97622e-05
-0.000997937
-0.00122243
-0.00204122
-0.00310704
-0.00297207
-0.00350601
-0.00340747
-0.00399851
-0.00455592
-0.00472004
-0.00477573
-0.00495527
-0.00499609
-0.00465712
-0.00426931
-0.00340703
-0.00251296
-0.00093435
0.000319513
-3.51986e-05
-0.00100337
-0.00121755
-0.00203886
-0.00309709
-0.00297522
-0.00350035
-0.003413
-0.0039936
-0.00456372
-0.00471627
-0.00478812
-0.00495343
-0.00501682
-0.00466707
-0.00430271
-0.00346632
-0.00260852
-0.00117154
-1.3527e-05
-4.07143e-05
-0.00100897
-0.00121233
-0.0020364
-0.00308698
-0.00297838
-0.00349434
-0.00341872
-0.00398847
-0.00457205
-0.00471261
-0.00480054
-0.00495328
-0.00503645
-0.00468271
-0.00433507
-0.00353865
-0.00271283
-0.00141992
-0.000353602
-4.62832e-05
-0.00101475
-0.00120679
-0.00203383
-0.00307674
-0.0029815
-0.003488
-0.00342459
-0.00398319
-0.00458078
-0.00470935
-0.00481259
-0.00495545
-0.00505452
-0.00470458
-0.00436755
-0.00362279
-0.00282899
-0.00167608
-0.00070064
-5.18746e-05
-0.00102071
-0.00120093
-0.00203113
-0.0030664
-0.00298454
-0.00348136
-0.0034305
-0.00397786
-0.0045897
-0.00470682
-0.00482384
-0.00496052
-0.00507084
-0.00473281
-0.00440203
-0.00371706
-0.00295941
-0.00193805
-0.00105366
-5.74564e-05
-0.00102682
-0.00119477
-0.00202825
-0.00305602
-0.00298743
-0.00347449
-0.00343635
-0.00397266
-0.00459859
-0.00470537
-0.00483385
-0.00496892
-0.00508567
-0.00476704
-0.00444081
-0.00381997
-0.00310566
-0.00220501
-0.00141109
-6.29986e-05
-0.00103308
-0.00118832
-0.00202512
-0.00304568
-0.00299006
-0.00346749
-0.00344198
-0.00396777
-0.00460718
-0.00470536
-0.00484231
-0.00498082
-0.0050997
-0.00480648
-0.00448611
-0.00393084
-0.00326838
-0.00247682
-0.00177118
-6.84753e-05
-0.00103946
-0.00118162
-0.00202166
-0.00303549
-0.00299232
-0.00346046
-0.00344722
-0.00396341
-0.00461523
-0.00470714
-0.00484907
-0.00499601
-0.00511411
-0.00485018
-0.00453975
-0.00404983
-0.0034472
-0.00275387
-0.00213224
-7.38678e-05
-0.0010459
-0.00117469
-0.00201777
-0.00302559
-0.00299407
-0.00345356
-0.00345186
-0.00395976
-0.00462253
-0.00471087
-0.00485435
-0.00501391
-0.00513028
-0.00489751
-0.00460298
-0.00417762
-0.00364125
-0.00303685
-0.00249271
-7.91667e-05
-0.00105235
-0.00116759
-0.00201328
-0.00301615
-0.00299513
-0.00344697
-0.00345572
-0.00395695
-0.004629
-0.00471647
-0.00485873
-0.0050337
-0.00514929
-0.00494838
-0.00467659
-0.00431527
-0.00384984
-0.00332657
-0.00285145
-8.43721e-05
-0.00105869
-0.00116039
-0.00200803
-0.00300739
-0.00299531
-0.0034409
-0.0034587
-0.00395504
-0.00463465
-0.00472355
-0.00486305
-0.00505468
-0.00517176
-0.00500314
-0.0047609
-0.00446375
-0.00407277
-0.00362411
-0.0032081
-8.94975e-05
-0.00106481
-0.00115321
-0.00200179
-0.00299952
-0.00299446
-0.00343542
-0.00346075
-0.00395401
-0.00463976
-0.0047314
-0.00486801
-0.00507655
-0.00519809
-0.00506262
-0.00485602
-0.00462359
-0.00431005
-0.00393096
-0.00356338
-9.45787e-05
-0.0010705
-0.00114616
-0.00199437
-0.00299275
-0.00299248
-0.00343055
-0.00346192
-0.00395356
-0.00464494
-0.00473923
-0.00487392
-0.00509923
-0.00522852
-0.00512775
-0.00496228
-0.00479506
-0.00456137
-0.00424888
-0.00391928
-9.96804e-05
-0.00107552
-0.00113941
-0.00198551
-0.00298726
-0.0029893
-0.00342622
-0.00346255
-0.00395303
-0.00465095
-0.00474658
-0.00488079
-0.00512306
-0.00526307
-0.00519924
-0.00508021
-0.00497845
-0.00482599
-0.0045795
-0.00427919
-0.0001049
-0.00107957
-0.0011331
-0.00197502
-0.00298323
-0.00298494
-0.00342222
-0.00346329
-0.00395145
-0.00465823
-0.00475347
-0.00488834
-0.0051489
-0.0053018
-0.00527737
-0.00521026
-0.00517407
-0.00510279
-0.0049234
-0.00464784
-0.000110358
-0.0010823
-0.00112739
-0.00196272
-0.00298075
-0.00297954
-0.00341807
-0.00346495
-0.00394804
-0.0046668
-0.0047604
-0.00489594
-0.00517768
-0.00534535
-0.00536232
-0.00535269
-0.00538223
-0.00539008
-0.00527969
-0.00502965
-0.000116195
-0.00108328
-0.00112239
-0.00194856
-0.00297978
-0.00297349
-0.00341301
-0.0034683
-0.0039424
-0.00467643
-0.00476831
-0.00490289
-0.00521
-0.005395
-0.00545487
-0.00550807
-0.00560322
-0.00568531
-0.00564452
-0.00542481
-0.000122601
-0.00108206
-0.0011182
-0.00193253
-0.00298005
-0.00296749
-0.00340612
-0.00347399
-0.0039346
-0.00468635
-0.00477832
-0.00490905
-0.00524612
-0.00545329
-0.00555742
-0.00567733
-0.00583664
-0.00598572
-0.00601313
-0.00583037
-0.000129832
-0.00107819
-0.00111472
-0.00191479
-0.00298103
-0.0029625
-0.00339662
-0.00348229
-0.00392523
-0.00469547
-0.00479173
-0.00491519
-0.00528648
-0.00552428
-0.00567168
-0.00585906
-0.0060816
-0.00629005
-0.00638132
-0.00623943
-0.000138137
-0.00107131
-0.00111167
-0.00189575
-0.00298202
-0.00295942
-0.00338427
-0.00349306
-0.0039154
-0.00470299
-0.00480993
-0.00492424
-0.00533269
-0.00560934
-0.00579616
-0.00604927
-0.00633763
-0.00659958
-0.00674685
-0.00664653
-0.000147734
-0.0010611
-0.00110854
-0.00187604
-0.00298234
-0.00295896
-0.00336911
-0.00350587
-0.00390645
-0.00470836
-0.00483451
-0.00494011
-0.00538617
-0.00570672
-0.00592705
-0.00624329
-0.00660334
-0.0069168
-0.00711052
-0.00704759
-0.000158758
-0.00104745
-0.00110461
-0.00185626
-0.00298145
-0.00296164
-0.00335186
-0.00352012
-0.00390006
-0.0047125
-0.00486631
-0.00496437
-0.0054463
-0.00581379
-0.006062
-0.0064371
-0.00687535
-0.00724307
-0.00747491
-0.0074396
-0.000171221
-0.00103048
-0.00109886
-0.00183687
-0.0029792
-0.00296752
-0.00333391
-0.00353549
-0.00389808
-0.00471771
-0.0049055
-0.00499664
-0.00551033
-0.00592938
-0.00620182
-0.00662811
-0.00714919
-0.00757819
-0.00784208
-0.00782236
-0.000185102
-0.00101061
-0.00109021
-0.00181796
-0.00297585
-0.00297655
-0.00331689
-0.00354711
-0.0039016
-0.00472517
-0.0049513
-0.00503473
-0.00557484
-0.00605188
-0.00634951
-0.00681606
-0.00742025
-0.00791999
-0.00821369
-0.00819785
-0.000200273
-0.000988547
-0.00107771
-0.00179928
-0.00297206
-0.00298874
-0.0033027
-0.0035658
-0.00391081
-0.00473527
-0.00500292
-0.00507728
-0.00563655
-0.00617945
-0.00650862
-0.00700347
-0.00768487
-0.00826404
-0.00859005
-0.00856901
-0.000216407
-0.000965144
-0.00106019
-0.00178028
-0.00296883
-0.00300412
-0.00329292
-0.00358862
-0.00392553
-0.00474678
-0.00505921
-0.00512503
-0.00569359
-0.00630925
-0.00668175
-0.00719492
-0.00794129
-0.00860439
-0.00896921
-0.00893829
-0.000233083
-0.000941281
-0.00103789
-0.00175983
-0.00296715
-0.00302333
-0.00328813
-0.00361571
-0.00394534
-0.00475769
-0.00511861
-0.00517982
-0.00574665
-0.0064377
-0.00686866
-0.00739546
-0.00819008
-0.00893526
-0.00934714
-0.00930673
-0.000249761
-0.000917915
-0.00101143
-0.00173661
-0.00296767
-0.00304735
-0.00328864
-0.00364725
-0.00396999
-0.00476605
-0.00517979
-0.00524408
-0.00579827
-0.00656107
-0.00706551
-0.00760862
-0.00843397
-0.00925272
-0.00971866
-0.00967342
-0.000265652
-0.000896025
-0.000982126
-0.00170961
-0.00297043
-0.00307696
-0.00329414
-0.00368312
-0.00400011
-0.00477059
-0.0052408
-0.00532012
-0.00585205
-0.00667599
-0.00726666
-0.00783545
-0.00867709
-0.00955543
-0.0100785
-0.0100356
-0.000279873
-0.000876358
-0.000951986
-0.00167825
-0.00297505
-0.00311293
-0.00330366
-0.00372349
-0.00403716
-0.00477158
-0.00529864
-0.00540903
-0.00591266
-0.00678116
-0.00746605
-0.00807428
-0.00892343
-0.00984428
-0.0104225
-0.0103896
-0.000291625
-0.000859312
-0.000923191
-0.0016424
-0.0029811
-0.00315576
-0.00331461
-0.00376727
-0.00408311
-0.00477118
-0.00534965
-0.00550922
-0.00598512
-0.00687821
-0.00765761
-0.00832046
-0.00917524
-0.0101218
-0.0107483
-0.0107315
-0.000300235
-0.000845105
-0.000897783
-0.00160238
-0.00298786
-0.00320464
-0.00332719
-0.00381173
-0.0041393
-0.00477305
-0.00539065
-0.00561601
-0.00607367
-0.00697187
-0.00783665
-0.00856728
-0.00943235
-0.0103915
-0.0110557
-0.011058
-0.000305288
-0.000833524
-0.000877611
-0.00155913
-0.00299419
-0.00325752
-0.00334168
-0.00385261
-0.0042055
-0.00478147
-0.00542041
-0.00572322
-0.00617944
-0.00706862
-0.00800205
-0.00880789
-0.00969218
-0.010656
-0.0113463
-0.0113667
-0.000306604
-0.000823935
-0.000864456
-0.00151443
-0.00299891
-0.00331683
-0.00335909
-0.0038855
-0.00427964
-0.00480094
-0.00544051
-0.00582442
-0.00629902
-0.00717386
-0.00815665
-0.0090369
-0.00995023
-0.0109164
-0.0116219
-0.0116566
-0.000304043
-0.000815737
-0.000860113
-0.00147031
-0.00300101
-0.00338771
-0.00338117
-0.00390668
-0.0043576
-0.0048356
-0.00545529
-0.00591426
-0.00642633
-0.00729028
-0.00830462
-0.00925155
-0.0102013
-0.0111718
-0.0118846
-0.011928
-0.000297564
-0.000808285
-0.000866178
-0.00142912
-0.00299919
-0.00347491
-0.00341112
-0.00391416
-0.00443384
-0.00488773
-0.00547081
-0.00598966
-0.00655439
-0.00741706
-0.00844979
-0.00945139
-0.0104404
-0.0114193
-0.0121353
-0.0121825
-0.000287524
-0.000800718
-0.000883813
-0.00139372
-0.00299131
-0.00357224
-0.00345409
-0.00390924
-0.00450093
-0.00495587
-0.00549369
-0.00605087
-0.00667606
-0.00755086
-0.00859503
-0.00963753
-0.0106636
-0.0116546
-0.0123734
-0.0124213
-0.000274776
-0.000792258
-0.00091352
-0.00136779
-0.00297515
-0.00367483
-0.00351561
-0.00389643
-0.00455065
-0.00503423
-0.00552973
-0.0061017
-0.00678557
-0.00768655
-0.00874154
-0.00981203
-0.0108684
-0.0118729
-0.0125961
-0.0126447
-0.000260318
-0.000782431
-0.000955272
-0.00135504
-0.00294967
-0.0037774
-0.0035992
-0.00388199
-0.00457783
-0.00511489
-0.00558153
-0.00614813
-0.00687971
-0.0078176
-0.00888808
-0.00997711
-0.0110548
-0.0120711
-0.0128001
-0.012851
-0.000245374
-0.000770931
-0.00100857
-0.00135901
-0.00291554
-0.00387306
-0.00370541
-0.00387435
-0.00458195
-0.00518842
-0.00564716
-0.00619635
-0.00695857
-0.00793727
-0.00903084
-0.0101342
-0.0112242
-0.0122475
-0.0129818
-0.013037
-0.000231917
-0.000757737
-0.00107145
-0.00138274
-0.00287378
-0.00395583
-0.00383217
-0.00388316
-0.00456689
-0.00524532
-0.00572106
-0.00625039
-0.00702466
-0.00803991
-0.00916375
-0.010283
-0.0113791
-0.0124027
-0.0131388
-0.0131991
-0.000222405
-0.000743265
-0.00114095
-0.00142841
-0.00282933
-0.00403026
-0.00397446
-0.00391714
-0.00453964
-0.00527887
-0.00579537
-0.00631102
-0.00708115
-0.0081221
-0.00927956
-0.0104207
-0.0115206
-0.012538
-0.0132704
-0.0133342
-0.000219194
-0.000728819
-0.00121293
-0.00149738
-0.0027881
-0.00407154
-0.00412453
-0.00398078
-0.00450963
-0.00528705
-0.00586093
-0.00637562
-0.00713062
-0.00818288
-0.00937222
-0.0105416
-0.0116476
-0.0126548
-0.0133769
-0.0134405
-0.000224124
-0.000716345
-0.00128414
-0.00158849
-0.00275767
-0.00408867
-0.00427262
-0.00407382
-0.0044877
-0.00527261
-0.00590862
-0.00643842
-0.00717418
-0.00822299
-0.00943714
-0.0106376
-0.0117551
-0.0127525
-0.0134591
-0.0135174
-0.000238727
-0.000707464
-0.00135241
-0.00169872
-0.00274562
-0.00408574
-0.00440811
-0.00419158
-0.00448328
-0.00524103
-0.00593209
-0.00649192
-0.00721114
-0.00824381
-0.00947097
-0.0107006
-0.0118358
-0.012827
-0.0135163
-0.0135648
-0.000264726
-0.000707668
-0.00141649
-0.00182399
-0.00275816
-0.00406921
-0.00452201
-0.00432548
-0.00450213
-0.00519984
-0.00592921
-0.00652825
-0.00723812
-0.00824563
-0.00947173
-0.0107245
-0.0118805
-0.0128699
-0.0135447
-0.0135814
-0.000303511
-0.000718392
-0.00147687
-0.00195939
-0.00279866
-0.00404742
-0.00460981
-0.00446541
-0.00454546
-0.00515759
-0.00590108
-0.00654034
-0.00724894
-0.00822651
-0.00943787
-0.0107041
-0.0118801
-0.0128735
-0.0135375
-0.0135645
-0.000356206
-0.000742635
-0.00153534
-0.00210021
-0.00286737
-0.00403006
-0.00467248
-0.00460107
-0.00460975
-0.00512114
-0.00585041
-0.00652259
-0.00723578
-0.00818245
-0.00936747
-0.0106353
-0.0118274
-0.01283
-0.013489
-0.0135083
-0.000423926
-0.000783573
-0.00159509
-0.00224238
-0.00296192
-0.00402612
-0.00471572
-0.00472437
-0.00468813
-0.00509374
-0.00578076
-0.0064708
-0.00719027
-0.00810727
-0.00925727
-0.0105142
-0.0117165
-0.0127308
-0.0133912
-0.013408
-0.000507609
-0.000843639
-0.00166082
-0.00238371
-0.0030786
-0.00404181
-0.00474645
-0.00483123
-0.00477286
-0.00507563
-0.00569612
-0.00638299
-0.00710439
-0.00799256
-0.00910128
-0.0103354
-0.0115395
-0.0125652
-0.0132332
-0.0132543
-0.000608555
-0.000924617
-0.00173713
-0.00252419
-0.00321339
-0.00408091
-0.00477205
-0.00492062
-0.00485703
-0.00506542
-0.00560026
-0.00625914
-0.00697109
-0.00782832
-0.00889027
-0.0100901
-0.0112856
-0.0123191
-0.0129995
-0.0130329
-0.000728623
-0.00102849
-0.00182825
-0.00266486
-0.00336235
-0.00414556
-0.00480013
-0.00499391
-0.00493553
-0.00506079
-0.00549644
-0.00610053
-0.00678447
-0.00760299
-0.00861138
-0.00976524
-0.0109394
-0.0119743
-0.0126698
-0.0127245
-0.000870007
-0.00115726
-0.00193836
-0.00280798
-0.00352218
-0.00423591
-0.00483827
-0.00505574
-0.00500582
-0.00505937
-0.00538751
-0.00590968
-0.00654007
-0.00730346
-0.00824705
-0.00934065
-0.0104779
-0.0115049
-0.0122137
-0.0122908
-0.00103605
-0.00131206
-0.00207113
-0.00295809
-0.00369088
-0.00435018
-0.00489285
-0.00511305
-0.00506865
-0.00506054
-0.00527692
-0.00569163
-0.00623628
-0.00691726
-0.00777407
-0.00878622
-0.00986691
-0.0108712
-0.0115796
-0.0116889
-0.00122999
-0.00149508
-0.002229
-0.00312031
-0.00386894
-0.00448602
-0.00496812
-0.0051741
-0.00512865
-0.00506586
-0.00517119
-0.0054572
-0.00587737
-0.0064345
-0.00716181
-0.00805673
-0.00904537
-0.00999949
-0.0107103
-0.0108682
-0.00145556
-0.00170924
-0.00241453
-0.00329917
-0.00405701
-0.00464132
-0.00506674
-0.00524804
-0.00519495
-0.00508094
-0.00507909
-0.00522555
-0.00548186
-0.00585089
-0.0063809
-0.00708983
-0.00792886
-0.00879503
-0.00949826
-0.00973446
-0.00171617
-0.00195729
-0.00263388
-0.00349998
-0.00425565
-0.00481374
-0.00518867
-0.00534176
-0.00527907
-0.00511868
-0.00500994
-0.00501401
-0.00509924
-0.00521423
-0.00541217
-0.0057924
-0.00635975
-0.00702781
-0.00769697
-0.00809278
-0.00200471
-0.00224195
-0.00289276
-0.00372727
-0.00446768
-0.0050005
-0.00533238
-0.00545816
-0.0053879
-0.005199
-0.00498345
-0.0048215
-0.00474061
-0.00466494
-0.00446149
-0.00411044
-0.00377508
-0.00368226
-0.00390563
-0.00436596
-0.00232883
-0.00256662
-0.00319288
-0.00398385
-0.0046947
-0.00520086
-0.00549719
-0.00560057
-0.0055249
-0.00533548
-0.00505025
-0.0046734
-0.00429896
-0.00416038
-0.0042806
-0.00405449
-0.00287337
-0.000940883
0.000916962
0.00211561
-0.00272629
-0.00293873
-0.00352488
-0.00426437
-0.00493369
-0.0054083
-0.00568051
-0.0057689
-0.00567739
-0.00546099
-0.00523934
-0.00486995
-0.00380564
-0.00225437
-0.000742641
0.000550367
0.00176821
0.00298691
0.00403199
0.00449507
-0.00319847
-0.00336881
-0.00389325
-0.00456749
-0.00517668
-0.00561253
-0.00586276
-0.00593924
-0.00584305
-0.00535625
-0.00414116
-0.00262245
-0.00120417
-2.98755e-05
0.000970639
0.00193285
0.00294747
0.0039698
0.00477794
0.00497831
-0.00372949
-0.00386571
-0.00430815
-0.00488925
-0.0054146
-0.00578201
-0.00597115
-0.00582707
-0.00502682
-0.00384816
-0.00262785
-0.00154242
-0.000579121
0.00039623
0.00146172
0.00261748
0.00380266
0.00488615
0.00564576
0.00574321
-0.00432561
-0.00444082
-0.00477823
-0.00520549
-0.00559534
-0.00577456
-0.00547144
-0.00480107
-0.00393584
-0.00304429
-0.00217783
-0.00126136
-0.00023568
0.000904227
0.00214415
0.0034414
0.0047101
0.00581107
0.00652697
0.00652452
-0.00498816
-0.00509616
-0.0052766
-0.00543621
-0.00540921
-0.00514217
-0.00469035
-0.0041219
-0.00348728
-0.0027463
-0.00187912
-0.000873714
0.000260071
0.00150316
0.00282455
0.00417399
0.00546309
0.00654827
0.00720515
0.00710425
-0.0056854
-0.00575135
-0.00563861
-0.00537381
-0.00503698
-0.00465134
-0.00423151
-0.00374827
-0.00315137
-0.00240338
-0.00148817
-0.000427555
0.000758057
0.00204551
0.00339954
0.00475867
0.0060294
0.00706821
0.00765666
0.00747237
-0.00632008
-0.00627994
-0.00587413
-0.00532295
-0.00478155
-0.00431939
-0.0038856
-0.00340097
-0.0027975
-0.00203025
-0.00109821
-1.85187e-05
0.00118899
0.00249383
0.00385126
0.00519844
0.00644219
0.00744064
0.00797817
0.00773601
-0.00683411
-0.006679
-0.00608895
-0.00533373
-0.00463418
-0.00406596
-0.00357877
-0.00307451
-0.00246186
-0.00169432
-0.000760212
0.000326791
0.00154205
0.00285056
0.00420532
0.00554138
0.0067645
0.00773316
0.00823343
0.00794926
-0.00723027
-0.00699339
-0.006285
-0.0053849
-0.00454346
-0.00386752
-0.00331872
-0.00278741
-0.0021702
-0.00140894
-0.000483076
0.000601338
0.00181782
0.00312724
0.00447991
0.00580842
0.00701693
0.0079641
0.00843745
0.00812322
-0.00752899
-0.00724355
-0.00645004
-0.00544617
-0.0044978
-0.00373262
-0.00312208
-0.00255847
-0.00192979
-0.00116513
-0.000238373
0.000844469
0.00205788
0.00336469
0.00471166
0.00603066
0.00722507
0.00815518
0.00860912
0.00827383
-0.00771755
-0.00741655
-0.00658099
-0.00552009
-0.00451081
-0.00369131
-0.00303801
-0.00244623
-0.00180104
-0.00102264
-7.83719e-05
0.00102321
0.00225037
0.0035603
0.00490372
0.00621616
0.00739448
0.00831215
0.00875642
0.00841356
0.00794779
0.00308574
-0.00423244
-0.00940951
-0.010474
-0.00921568
-0.00772084
-0.00668338
-0.00608539
-0.00577728
-0.00564368
-0.00561223
-0.00564112
-0.00570639
-0.00579117
-0.00588255
-0.00597283
-0.00605762
-0.00613469
-0.006206
-0.0062765
-0.00634856
-0.00642006
-0.00648902
-0.00655722
-0.00662762
-0.0067007
-0.00677493
-0.00684937
-0.00692433
-0.00700005
-0.00707602
-0.00715173
-0.00722721
-0.00730278
-0.00737867
-0.00745462
-0.00753033
-0.0076055
-0.00767994
-0.0077535
-0.00782602
-0.00789736
-0.00796741
-0.00803592
-0.00810271
-0.00816774
-0.00823126
-0.00829374
-0.00835545
-0.00841641
-0.00847649
-0.0085359
-0.00859514
-0.00865445
-0.00871342
-0.00877131
-0.00882779
-0.00888292
-0.00893667
-0.00898888
-0.00903964
-0.00908937
-0.00913856
-0.00918759
-0.00923673
-0.00928611
-0.00933575
-0.00938538
-0.00943455
-0.00948275
-0.00952987
-0.00957614
-0.00962209
-0.00966801
-0.00971403
-0.00976012
-0.00980636
-0.00985255
-0.0098985
-0.00994381
-0.00998842
-0.0100323
-0.0100759
-0.0101194
-0.0101629
-0.0102063
-0.0102494
-0.0102921
-0.0103344
-0.0103761
-0.0104171
-0.0104575
-0.010498
-0.0105387
-0.0105795
-0.0106198
-0.0106594
-0.0106988
-0.0107383
-0.010778
-0.0108177
-0.0108575
-0.0108974
-0.0109373
-0.010977
-0.0110167
-0.0110565
-0.0110967
-0.0111369
-0.0111771
-0.0112171
-0.0112572
-0.0112972
-0.011337
-0.0113768
-0.0114166
-0.011456
-0.0114948
-0.0115332
-0.0115713
-0.0116093
-0.011647
-0.0116838
-0.0117197
-0.0117545
-0.011789
-0.0118235
-0.0118576
-0.0118905
-0.0119217
-0.0119517
-0.0119815
-0.0120114
-0.0120408
-0.0120683
-0.0120939
-0.0121187
-0.0121438
-0.012169
-0.0121925
-0.0122147
-0.0122353
-0.0122556
-0.0122754
-0.012296
-0.0123152
-0.0123313
-0.0123457
-0.0123626
-0.012381
-0.0123951
-0.0124057
-0.0124181
-0.0124341
-0.0124463
-0.0124547
-0.0124642
-0.0124762
-0.0124859
-0.0124925
-0.0125
-0.0125079
-0.0125149
-0.0125199
-0.0125251
-0.0125303
-0.0125344
-0.0125381
-0.0125406
-0.0125437
-0.0125453
-0.012547
-0.0125478
-0.0125481
-0.012549
-0.0125475
-0.0125481
-0.0125458
-0.0125455
-0.0125431
-0.0125413
-0.0125395
-0.0125361
-0.0125348
-0.0125301
-0.0125284
-0.0125238
-0.0125199
-0.0125168
-0.0125097
-0.0125072
-0.0124993
-0.0124926
-0.0124867
-0.012475
-0.0124647
-0.0124536
-0.012435
-0.0124223
0.00720962
0.00290144
-0.00415564
-0.00927308
-0.0103926
-0.00917699
-0.00769655
-0.00666625
-0.00607305
-0.00576793
-0.00563616
-0.0056059
-0.00563564
-0.00570157
-0.00578685
-0.00587867
-0.0059693
-0.0060544
-0.00613174
-0.00620327
-0.00627397
-0.00634622
-0.00641789
-0.00648699
-0.00655532
-0.00662584
-0.00669904
-0.00677337
-0.0068479
-0.00692293
-0.00699873
-0.00707477
-0.00715054
-0.00722607
-0.00730169
-0.00737763
-0.00745362
-0.00752936
-0.00760457
-0.00767904
-0.00775264
-0.00782519
-0.00789656
-0.00796664
-0.00803518
-0.008102
-0.00816705
-0.00823059
-0.0082931
-0.00835484
-0.00841581
-0.00847592
-0.00853535
-0.00859461
-0.00865394
-0.00871292
-0.00877084
-0.00882733
-0.00888247
-0.00893624
-0.00898846
-0.00903924
-0.00908898
-0.00913818
-0.00918722
-0.00923638
-0.00928577
-0.00933542
-0.00938505
-0.00943423
-0.00948245
-0.00952957
-0.00957585
-0.00962181
-0.00966774
-0.00971377
-0.00975986
-0.00980611
-0.00985231
-0.00989826
-0.00994358
-0.0099882
-0.0100321
-0.0100757
-0.0101192
-0.0101627
-0.0102061
-0.0102492
-0.0102919
-0.0103342
-0.0103759
-0.0104169
-0.0104574
-0.0104978
-0.0105385
-0.0105793
-0.0106196
-0.0106593
-0.0106986
-0.0107381
-0.0107779
-0.0108176
-0.0108574
-0.0108973
-0.0109372
-0.0109769
-0.0110166
-0.0110564
-0.0110965
-0.0111368
-0.0111769
-0.011217
-0.0112571
-0.0112971
-0.0113369
-0.0113767
-0.0114165
-0.0114559
-0.0114947
-0.0115331
-0.0115712
-0.0116093
-0.0116469
-0.0116838
-0.0117196
-0.0117545
-0.0117889
-0.0118234
-0.0118575
-0.0118904
-0.0119216
-0.0119516
-0.0119815
-0.0120114
-0.0120407
-0.0120683
-0.0120939
-0.0121187
-0.0121437
-0.012169
-0.0121925
-0.0122146
-0.0122352
-0.0122555
-0.0122753
-0.012296
-0.0123152
-0.0123313
-0.0123457
-0.0123625
-0.012381
-0.0123951
-0.0124057
-0.012418
-0.0124341
-0.0124463
-0.0124547
-0.0124642
-0.0124761
-0.0124859
-0.0124925
-0.0125
-0.0125079
-0.0125149
-0.0125199
-0.0125251
-0.0125303
-0.0125344
-0.0125381
-0.0125406
-0.0125437
-0.0125453
-0.012547
-0.0125478
-0.0125481
-0.012549
-0.0125475
-0.0125481
-0.0125458
-0.0125455
-0.0125431
-0.0125413
-0.0125395
-0.0125361
-0.0125348
-0.0125301
-0.0125284
-0.0125238
-0.0125199
-0.0125168
-0.0125096
-0.0125072
-0.0124993
-0.0124926
-0.0124867
-0.012475
-0.0124647
-0.0124536
-0.012435
-0.0124223
0.00643225
0.00271452
-0.00398554
-0.00901552
-0.0102455
-0.00911901
-0.00766514
-0.00664206
-0.00605414
-0.00575356
-0.00562516
-0.00559725
-0.00562863
-0.00569571
-0.00578184
-0.00587427
-0.00596538
-0.00605088
-0.00612855
-0.00620036
-0.00627129
-0.00634375
-0.0064156
-0.00648487
-0.00655334
-0.006624
-0.00669732
-0.00677177
-0.0068464
-0.00692152
-0.0069974
-0.00707352
-0.00714935
-0.00722494
-0.00730062
-0.0073766
-0.00745264
-0.00752842
-0.00760367
-0.00767818
-0.00775181
-0.00782439
-0.00789579
-0.00796589
-0.00803446
-0.0081013
-0.00816637
-0.00822995
-0.00829248
-0.00835424
-0.00841523
-0.00847536
-0.00853482
-0.00859409
-0.00865345
-0.00871245
-0.00877038
-0.00882688
-0.00888204
-0.00893582
-0.00898806
-0.00903884
-0.0090886
-0.00913782
-0.00918687
-0.00923604
-0.00928544
-0.0093351
-0.00938474
-0.00943393
-0.00948215
-0.00952929
-0.00957557
-0.00962154
-0.00966748
-0.00971351
-0.00975962
-0.00980587
-0.00985208
-0.00989804
-0.00994336
-0.00998799
-0.0100319
-0.0100755
-0.010119
-0.0101625
-0.0102059
-0.010249
-0.0102917
-0.010334
-0.0103757
-0.0104167
-0.0104572
-0.0104977
-0.0105384
-0.0105791
-0.0106195
-0.0106591
-0.0106985
-0.010738
-0.0107777
-0.0108175
-0.0108573
-0.0108972
-0.0109371
-0.0109768
-0.0110164
-0.0110563
-0.0110964
-0.0111366
-0.0111768
-0.0112169
-0.011257
-0.011297
-0.0113368
-0.0113766
-0.0114164
-0.0114558
-0.0114947
-0.011533
-0.0115711
-0.0116092
-0.0116468
-0.0116837
-0.0117195
-0.0117544
-0.0117889
-0.0118233
-0.0118575
-0.0118903
-0.0119216
-0.0119516
-0.0119814
-0.0120113
-0.0120407
-0.0120682
-0.0120939
-0.0121186
-0.0121437
-0.0121689
-0.0121924
-0.0122146
-0.0122352
-0.0122555
-0.0122753
-0.012296
-0.0123151
-0.0123313
-0.0123457
-0.0123625
-0.012381
-0.0123951
-0.0124056
-0.012418
-0.012434
-0.0124463
-0.0124547
-0.0124642
-0.0124761
-0.0124858
-0.0124925
-0.0124999
-0.0125079
-0.0125149
-0.0125199
-0.0125251
-0.0125303
-0.0125344
-0.0125381
-0.0125405
-0.0125437
-0.0125453
-0.012547
-0.0125478
-0.0125481
-0.012549
-0.0125475
-0.0125481
-0.0125457
-0.0125455
-0.0125431
-0.0125413
-0.0125395
-0.0125361
-0.0125348
-0.0125301
-0.0125284
-0.0125238
-0.0125199
-0.0125168
-0.0125096
-0.0125072
-0.0124993
-0.0124926
-0.0124867
-0.012475
-0.0124647
-0.0124536
-0.012435
-0.0124223
0.00569437
0.00254832
-0.00374741
-0.00867497
-0.0100409
-0.00903661
-0.00762039
-0.00660561
-0.00602453
-0.00573115
-0.00560849
-0.00558459
-0.00561871
-0.0056877
-0.00577516
-0.00586854
-0.00596035
-0.00604641
-0.00612457
-0.00619679
-0.00626807
-0.0063408
-0.00641288
-0.00648236
-0.00655103
-0.00662186
-0.00669534
-0.00676993
-0.00684469
-0.00691994
-0.00699592
-0.00707214
-0.00714806
-0.00722373
-0.00729948
-0.00737553
-0.00745162
-0.00752745
-0.00760274
-0.00767728
-0.00775095
-0.00782356
-0.00789499
-0.00796512
-0.00803372
-0.00810059
-0.00816568
-0.00822928
-0.00829183
-0.00835361
-0.00841463
-0.00847478
-0.00853426
-0.00859356
-0.00865294
-0.00871196
-0.00876991
-0.00882643
-0.0088816
-0.00893539
-0.00898764
-0.00903844
-0.00908821
-0.00913744
-0.00918651
-0.00923569
-0.00928511
-0.00933478
-0.00938443
-0.00943363
-0.00948186
-0.009529
-0.00957529
-0.00962127
-0.00966721
-0.00971326
-0.00975937
-0.00980564
-0.00985185
-0.00989781
-0.00994314
-0.00998777
-0.0100317
-0.0100753
-0.0101188
-0.0101624
-0.0102057
-0.0102488
-0.0102915
-0.0103339
-0.0103755
-0.0104166
-0.010457
-0.0104975
-0.0105382
-0.010579
-0.0106193
-0.010659
-0.0106983
-0.0107378
-0.0107776
-0.0108173
-0.0108572
-0.010897
-0.010937
-0.0109767
-0.0110163
-0.0110561
-0.0110963
-0.0111365
-0.0111767
-0.0112168
-0.0112569
-0.0112969
-0.0113367
-0.0113766
-0.0114163
-0.0114558
-0.0114946
-0.0115329
-0.011571
-0.0116091
-0.0116467
-0.0116836
-0.0117194
-0.0117543
-0.0117888
-0.0118233
-0.0118574
-0.0118903
-0.0119215
-0.0119515
-0.0119814
-0.0120113
-0.0120406
-0.0120682
-0.0120938
-0.0121186
-0.0121436
-0.0121689
-0.0121924
-0.0122146
-0.0122352
-0.0122555
-0.0122753
-0.012296
-0.0123151
-0.0123312
-0.0123456
-0.0123625
-0.0123809
-0.012395
-0.0124056
-0.012418
-0.012434
-0.0124463
-0.0124547
-0.0124642
-0.0124761
-0.0124858
-0.0124924
-0.0124999
-0.0125079
-0.0125149
-0.0125199
-0.0125251
-0.0125303
-0.0125344
-0.0125381
-0.0125405
-0.0125437
-0.0125453
-0.012547
-0.0125478
-0.0125481
-0.0125489
-0.0125475
-0.0125481
-0.0125457
-0.0125455
-0.0125431
-0.0125413
-0.0125395
-0.0125361
-0.0125348
-0.0125301
-0.0125284
-0.0125238
-0.0125199
-0.0125168
-0.0125096
-0.0125072
-0.0124993
-0.0124926
-0.0124867
-0.012475
-0.0124647
-0.0124536
-0.012435
-0.0124223
0.00498844
0.00237332
-0.00349054
-0.00830482
-0.00981106
-0.00894287
-0.0075688
-0.00656005
-0.00598494
-0.0057001
-0.005585
-0.00556662
-0.00560461
-0.00567635
-0.00576578
-0.00586055
-0.00595337
-0.00604022
-0.0061191
-0.00619195
-0.00626375
-0.00633686
-0.00640925
-0.00647902
-0.00654796
-0.00661905
-0.00669276
-0.00676755
-0.0068425
-0.00691792
-0.00699406
-0.00707041
-0.00714647
-0.00722226
-0.00729812
-0.00737425
-0.00745043
-0.00752633
-0.00760167
-0.00767627
-0.00774998
-0.00782264
-0.0078941
-0.00796426
-0.00803288
-0.00809977
-0.00816489
-0.00822851
-0.00829109
-0.00835289
-0.00841393
-0.00847411
-0.00853362
-0.00859296
-0.00865236
-0.00871141
-0.00876938
-0.00882593
-0.00888111
-0.00893492
-0.00898718
-0.00903798
-0.00908776
-0.00913701
-0.00918609
-0.00923529
-0.00928474
-0.00933443
-0.00938409
-0.0094333
-0.00948153
-0.00952867
-0.00957497
-0.00962096
-0.00966691
-0.00971297
-0.0097591
-0.00980538
-0.0098516
-0.00989757
-0.0099429
-0.00998753
-0.0100315
-0.0100751
-0.0101186
-0.0101621
-0.0102055
-0.0102486
-0.0102913
-0.0103337
-0.0103754
-0.0104164
-0.0104569
-0.0104973
-0.010538
-0.0105788