/*--------------------------------*- C++ -*----------------------------------*\
| =========                 |                                                 |
| \\      /  F ield         | OpenFOAM: The Open Source CFD Toolbox           |
|  \\    /   O peration     | Version:  v2012                                 |
|   \\  /    A nd           | Website:  www.openfoam.com                      |
|    \\/     M anipulation  |                                                 |
\*---------------------------------------------------------------------------*/
FoamFile
{
    version     2.0;
    format      ascii;
    class       volVectorField;
    location    "1.55";
    object      U;
}
// * * * * * * * * * * * * * * * * * * * * * * * * * * * * * * * * * * * * * //

dimensions      [0 1 -1 0 0 0 0];


internalField   nonuniform List<vector> 
17600
(
(0.837548 0.00201806 0)
(1.15876 -0.00365051 0)
(0.840906 0.00268565 0)
(1.14734 -0.00222022 0)
(0.844139 -0.00158746 0)
(1.14049 0.00208054 0)
(0.862047 0.000167759 0)
(1.13505 0.00151219 0)
(0.871514 0.00180309 0)
(1.12951 0.00181516 0)
(0.876 0.00174646 0)
(1.12066 0.00105543 0)
(0.87429 0.00159207 0)
(1.11357 0.000652057 0)
(0.8696 0.0017546 0)
(1.10793 0.000372488 0)
(0.861251 0.00221839 0)
(1.10417 0.000286994 0)
(0.846858 0.00325223 0)
(1.10006 0.000556759 0)
(0.847398 0.00196049 0)
(1.14594 -0.0034901 0)
(0.850963 0.00259005 0)
(1.13292 -0.0020523 0)
(0.856336 -0.00172624 0)
(1.12591 0.00209729 0)
(0.878362 4.68906e-06 0)
(1.11843 0.0015876 0)
(0.891822 0.00165862 0)
(1.10857 0.00196192 0)
(0.90256 0.00164026 0)
(1.09335 0.0013 0)
(0.909594 0.00150557 0)
(1.07644 0.000944427 0)
(0.918083 0.00174125 0)
(1.05535 0.000662705 0)
(0.930223 0.00254029 0)
(1.02718 0.000290084 0)
(0.947399 0.00470711 0)
(0.98498 -0.000144932 0)
(0.866619 0.00192479 0)
(1.12338 -0.00333175 0)
(0.871425 0.00250053 0)
(1.10811 -0.00191381 0)
(0.880759 -0.00185131 0)
(1.09826 0.00204798 0)
(0.907415 -9.34726e-05 0)
(1.08815 0.00160118 0)
(0.925423 0.00160387 0)
(1.07428 0.00199791 0)
(0.941539 0.00170516 0)
(1.05492 0.00134238 0)
(0.953391 0.00168576 0)
(1.03451 0.000905765 0)
(0.964453 0.00208831 0)
(1.01326 0.000501155 0)
(0.97388 0.00305133 0)
(0.993011 0.000109456 0)
(0.978405 0.00521356 0)
(0.974871 0.000821236 0)
(0.89242 0.00193199 0)
(1.0951 -0.0032261 0)
(0.898992 0.00247024 0)
(1.07852 -0.00186719 0)
(0.912231 -0.00187949 0)
(1.06499 0.00189712 0)
(0.939817 -9.01594e-05 0)
(1.0545 0.00148792 0)
(0.958105 0.00168159 0)
(1.04149 0.00187696 0)
(0.973399 0.00190271 0)
(1.0253 0.00122499 0)
(0.982 0.0019744 0)
(1.01067 0.000767502 0)
(0.98666 0.00244531 0)
(0.998306 0.00036841 0)
(0.987301 0.00341213 0)
(0.989034 0.000137132 0)
(0.983143 0.00547887 0)
(0.980705 0.00192006 0)
(0.920519 0.00197065 0)
(1.06631 -0.00316913 0)
(0.928102 0.00248945 0)
(1.0506 -0.00189512 0)
(0.942868 -0.00181671 0)
(1.03525 0.00169139 0)
(0.966402 -4.0527e-05 0)
(1.02771 0.00132148 0)
(0.980552 0.00178587 0)
(1.01981 0.00172434 0)
(0.991162 0.00207592 0)
(1.01035 0.00113241 0)
(0.994617 0.0021832 0)
(1.00256 0.000724905 0)
(0.994201 0.00266031 0)
(0.996045 0.000379173 0)
(0.991226 0.00361761 0)
(0.99048 0.000306182 0)
(0.985849 0.00569759 0)
(0.983447 0.00296118 0)
(0.946461 0.00202484 0)
(1.04187 -0.00314619 0)
(0.953513 0.00253043 0)
(1.02928 -0.00196151 0)
(0.966825 -0.00170442 0)
(1.01479 0.00149693 0)
(0.983405 3.04744e-06 0)
(1.01156 0.00117697 0)
(0.992198 0.00184781 0)
(1.00923 0.00161078 0)
(0.998586 0.00217583 0)
(1.00513 0.00109502 0)
(0.99921 0.00231017 0)
(1.00124 0.000741221 0)
(0.997151 0.00279997 0)
(0.996942 0.000438961 0)
(0.993707 0.00376167 0)
(0.992337 0.000529753 0)
(0.988656 0.0058621 0)
(0.985929 0.0039102 0)
(0.967098 0.00207684 0)
(1.02444 -0.00313944 0)
(0.972337 0.00256724 0)
(1.01605 -0.00203273 0)
(0.982471 -0.00158006 0)
(1.00393 0.00135186 0)
(0.992247 2.27092e-05 0)
(1.00394 0.00107329 0)
(0.996987 0.00186279 0)
(1.00519 0.00152947 0)
(1.00118 0.00222331 0)
(1.00394 0.00107486 0)
(1.00114 0.00239648 0)
(1.00185 0.000764899 0)
(0.999106 0.00290934 0)
(0.998511 0.000514281 0)
(0.995953 0.00385584 0)
(0.994488 0.000819291 0)
(0.991302 0.00593542 0)
(0.988771 0.00481697 0)
(0.981382 0.00211207 0)
(1.01392 -0.00313387 0)
(0.98442 0.00258489 0)
(1.00935 -0.00208963 0)
(0.991335 -0.00146281 0)
(0.999675 0.00125858 0)
(0.99627 2.65089e-05 0)
(1.00105 0.00099779 0)
(0.998711 0.00185032 0)
(1.00386 0.00145776 0)
(1.00213 0.00224322 0)
(1.00388 0.00104922 0)
(1.00232 0.00245976 0)
(1.00279 0.000782907 0)
(1.00076 0.00299358 0)
(1.00015 0.000603997 0)
(0.998031 0.00389882 0)
(0.996668 0.00117275 0)
(0.993833 0.00593038 0)
(0.991593 0.00568001 0)
(0.990106 0.0021248 0)
(1.00837 -0.00312205 0)
(0.99133 0.0025811 0)
(1.00645 -0.00212858 0)
(0.995916 -0.00135779 0)
(0.998718 0.00120093 0)
(0.998188 2.84191e-05 0)
(1.00017 0.000936283 0)
(0.999473 0.00182762 0)
(1.00343 0.00138544 0)
(1.00263 0.00224884 0)
(1.00401 0.0010144 0)
(1.0032 0.00250326 0)
(1.00363 0.000796919 0)
(1.00216 0.00304667 0)
(1.00162 0.00071364 0)
(0.999889 0.00389069 0)
(0.998647 0.00157473 0)
(0.996174 0.005875 0)
(0.994187 0.00647403 0)
(0.994945 0.00211825 0)
(1.00558 -0.00310333 0)
(0.995025 0.00256112 0)
(1.00516 -0.0021536 0)
(0.99822 -0.00126525 0)
(0.99896 0.00116131 0)
(0.999407 3.58497e-05 0)
(1.00006 0.000881638 0)
(1.00009 0.00180398 0)
(1.00333 0.00131166 0)
(1.00306 0.00224661 0)
(1.00416 0.000973125 0)
(1.0039 0.00252728 0)
(1.00431 0.000811426 0)
(1.00331 0.00306225 0)
(1.00284 0.000849542 0)
(1.00146 0.00383245 0)
(1.00034 0.00200891 0)
(0.998216 0.00579793 0)
(0.996461 0.00717057 0)
(0.997511 0.00209965 0)
(1.00403 -0.0030799 0)
(0.997012 0.00253121 0)
(1.00434 -0.0021689 0)
(0.999412 -0.00118553 0)
(0.999469 0.00112727 0)
(1.0004 4.90507e-05 0)
(1.00028 0.000830805 0)
(1.00076 0.00178244 0)
(1.00344 0.00123836 0)
(1.0035 0.00223936 0)
(1.00434 0.000930554 0)
(1.00448 0.00253082 0)
(1.00487 0.000832737 0)
(1.00422 0.00303644 0)
(1.00381 0.00101406 0)
(1.00272 0.0037307 0)
(1.00171 0.00245836 0)
(0.999897 0.00572988 0)
(0.998358 0.00774819 0)
(0.998893 0.00207546 0)
(1.00301 -0.00305393 0)
(0.998153 0.00249542 0)
(1.00366 -0.00217648 0)
(1.00005 -0.00111938 0)
(0.999936 0.00109175 0)
(1.00123 6.49639e-05 0)
(1.00063 0.000781983 0)
(1.00143 0.0017622 0)
(1.00368 0.00116805 0)
(1.00394 0.00222701 0)
(1.00456 0.00089301 0)
(1.00494 0.00251215 0)
(1.00531 0.000868188 0)
(1.00489 0.00296926 0)
(1.00454 0.00120418 0)
(1.00366 0.00360054 0)
(1.00275 0.00290125 0)
(1.0012 0.00569918 0)
(0.999855 0.00819861 0)
(0.999665 0.00204933 0)
(1.0023 -0.00302658 0)
(0.998849 0.00245556 0)
(1.00311 -0.00217703 0)
(1.00039 -0.00106657 0)
(1.00029 0.00105211 0)
(1.00184 8.03414e-05 0)
(1.00097 0.000733983 0)
(1.002 0.00174122 0)
(1.00397 0.00110267 0)
(1.00431 0.00220763 0)
(1.00478 0.000866067 0)
(1.00528 0.00247004 0)
(1.00565 0.000923593 0)
(1.00536 0.00286568 0)
(1.00506 0.00141352 0)
(1.00431 0.0034644 0)
(1.00349 0.00331352 0)
(1.00216 0.00572447 0)
(1.00098 0.00852962 0)
(1.0001 0.00202247 0)
(1.00185 -0.00299821 0)
(0.99927 0.00241218 0)
(1.00272 -0.00217095 0)
(1.00058 -0.00102548 0)
(1.00053 0.00100879 0)
(1.00225 9.29672e-05 0)
(1.00125 0.000686477 0)
(1.00241 0.00171733 0)
(1.00422 0.00104368 0)
(1.00458 0.00217848 0)
(1.00496 0.000853269 0)
(1.00551 0.00240427 0)
(1.00588 0.00100027 0)
(1.00565 0.00273581 0)
(1.00538 0.0016323 0)
(1.00474 0.00334664 0)
(1.00398 0.00367633 0)
(1.00283 0.00581011 0)
(1.00179 0.00876188 0)
(1.00032 0.0019949 0)
(1.00159 -0.00296869 0)
(0.999507 0.00236523 0)
(1.00248 -0.00215863 0)
(1.00068 -0.000994059 0)
(1.00068 0.000963982 0)
(1.00248 0.000100774 0)
(1.00145 0.000641319 0)
(1.00266 0.00168706 0)
(1.00439 0.000993202 0)
(1.00475 0.00213691 0)
(1.00508 0.000856332 0)
(1.00565 0.00231512 0)
(1.00601 0.00109565 0)
(1.00582 0.00259174 0)
(1.00557 0.00184786 0)
(1.00501 0.00326539 0)
(1.00431 0.00398369 0)
(1.00331 0.00594863 0)
(1.00238 0.00892181 0)
(1.00042 0.00196629 0)
(1.00147 -0.00293771 0)
(0.99963 0.00231446 0)
(1.00234 -0.00214067 0)
(1.00076 -0.00097047 0)
(1.00077 0.000920069 0)
(1.00259 0.000102043 0)
(1.00157 0.000600602 0)
(1.00281 0.00164779 0)
(1.0045 0.000953076 0)
(1.00484 0.00208026 0)
(1.00516 0.000877003 0)
(1.00572 0.00220387 0)
(1.00609 0.00120458 0)
(1.00592 0.00244559 0)
(1.00568 0.00204738 0)
(1.00519 0.00322884 0)
(1.00454 0.0042424 0)
(1.00367 0.00612528 0)
(1.00285 0.00903448 0)
(1.00045 0.0019363 0)
(1.00142 -0.00290478 0)
(0.999688 0.0022595 0)
(1.00226 -0.00211725 0)
(1.00082 -0.000954157 0)
(1.00083 0.000879471 0)
(1.00265 9.56285e-05 0)
(1.00166 0.000565184 0)
(1.00288 0.0015987 0)
(1.00456 0.000923515 0)
(1.00489 0.00200713 0)
(1.00519 0.000915015 0)
(1.00576 0.00207561 0)
(1.00612 0.00131792 0)
(1.00598 0.00231184 0)
(1.00574 0.00221965 0)
(1.00532 0.00323821 0)
(1.00473 0.0044626 0)
(1.00397 0.00632158 0)
(1.00324 0.00911931 0)
(1.00045 0.00190465 0)
(1.00141 -0.00286925 0)
(0.999716 0.00219963 0)
(1.00221 -0.00208774 0)
(1.00088 -0.000945955 0)
(1.00087 0.000844435 0)
(1.00268 7.98662e-05 0)
(1.00172 0.000537276 0)
(1.00292 0.00153752 0)
(1.0046 0.000904678 0)
(1.0049 0.00191768 0)
(1.00521 0.000965487 0)
(1.00578 0.00193905 0)
(1.00614 0.00142265 0)
(1.00602 0.00220356 0)
(1.00579 0.00235888 0)
(1.00544 0.00328908 0)
(1.0049 0.00465351 0)
(1.00424 0.00652172 0)
(1.0036 0.0091898 0)
(1.00044 0.0018711 0)
(1.00141 -0.00283027 0)
(0.999731 0.00213402 0)
(1.00216 -0.00205168 0)
(1.00094 -0.000946891 0)
(1.00091 0.000816329 0)
(1.00269 5.29022e-05 0)
(1.00178 0.000519868 0)
(1.00295 0.00146182 0)
(1.00463 0.000897053 0)
(1.00491 0.00181347 0)
(1.00521 0.0010217 0)
(1.0058 0.00180502 0)
(1.00614 0.00150729 0)
(1.00605 0.00212455 0)
(1.00584 0.0024675 0)
(1.00555 0.0033707 0)
(1.00508 0.0048254 0)
(1.00451 0.00671708 0)
(1.00395 0.00925634 0)
(1.00042 0.0018354 0)
(1.00141 -0.00278701 0)
(0.999742 0.00206165 0)
(1.00212 -0.002008 0)
(1.00101 -0.000958778 0)
(1.00094 0.000798078 0)
(1.0027 1.21616e-05 0)
(1.00183 0.000514013 0)
(1.00297 0.0013734 0)
(1.00465 0.00089898 0)
(1.00492 0.00169863 0)
(1.00521 0.00107518 0)
(1.00581 0.0016838 0)
(1.00615 0.00156688 0)
(1.00609 0.00207047 0)
(1.0059 0.00255328 0)
(1.00567 0.00346846 0)
(1.00527 0.00498546 0)
(1.00478 0.00690375 0)
(1.00429 0.00932645 0)
(1.0004 0.0017974 0)
(1.00142 -0.00273876 0)
(0.999752 0.00198114 0)
(1.00207 -0.00195464 0)
(1.00107 -0.000983767 0)
(1.00097 0.00079151 0)
(1.00271 -4.28687e-05 0)
(1.00188 0.000518077 0)
(1.00298 0.00127549 0)
(1.00466 0.000907097 0)
(1.00493 0.00158051 0)
(1.00521 0.00111526 0)
(1.00582 0.00157963 0)
(1.00616 0.00160207 0)
(1.00612 0.00203528 0)
(1.00596 0.00262552 0)
(1.00579 0.00357128 0)
(1.00547 0.00513418 0)
(1.00505 0.00707967 0)
(1.00463 0.00940436 0)
(1.00037 0.00175691 0)
(1.00143 -0.00268434 0)
(0.999761 0.00189029 0)
(1.00203 -0.00188988 0)
(1.00114 -0.0010231 0)
(1.00101 0.000795194 0)
(1.00272 -0.000109055 0)
(1.00192 0.000529913 0)
(1.003 0.00117022 0)
(1.00468 0.000915921 0)
(1.00493 0.00146947 0)
(1.00521 0.00113414 0)
(1.00583 0.00149121 0)
(1.00617 0.00161395 0)
(1.00616 0.0020139 0)
(1.00603 0.00268845 0)
(1.00593 0.00367634 0)
(1.00568 0.00526713 0)
(1.00534 0.00724103 0)
(1.00496 0.00948881 0)
(1.00035 0.00171367 0)
(1.00144 -0.00262232 0)
(0.999771 0.00178789 0)
(1.00198 -0.00181403 0)
(1.00121 -0.00107735 0)
(1.00104 0.000809938 0)
(1.00273 -0.000187248 0)
(1.00197 0.00054581 0)
(1.00302 0.00106266 0)
(1.00469 0.000913151 0)
(1.00494 0.00137455 0)
(1.00521 0.00112909 0)
(1.00585 0.00141725 0)
(1.00619 0.00160597 0)
(1.00621 0.00200204 0)
(1.00612 0.00274174 0)
(1.00608 0.00378492 0)
(1.00591 0.00538298 0)
(1.00563 0.00738257 0)
(1.00529 0.00957558 0)
(1.00032 0.00166738 0)
(1.00145 -0.0025513 0)
(0.999782 0.00167246 0)
(1.00194 -0.00172505 0)
(1.00129 -0.00114828 0)
(1.00108 0.00083507 0)
(1.00274 -0.000275282 0)
(1.00202 0.000562807 0)
(1.00304 0.000964277 0)
(1.00471 0.000887752 0)
(1.00494 0.00129782 0)
(1.00521 0.00110221 0)
(1.00586 0.00135315 0)
(1.00621 0.00158904 0)
(1.00626 0.00199404 0)
(1.00622 0.00278755 0)
(1.00624 0.00389252 0)
(1.00615 0.00548784 0)
(1.00594 0.00749698 0)
(1.00562 0.00965942 0)
(1.0003 0.00161755 0)
(1.00146 -0.00246999 0)
(0.999794 0.00154199 0)
(1.00189 -0.00162296 0)
(1.00136 -0.00123401 0)
(1.00111 0.000867823 0)
(1.00274 -0.000369281 0)
(1.00207 0.000572889 0)
(1.00305 0.000883642 0)
(1.00473 0.000835157 0)
(1.00495 0.0012337 0)
(1.00521 0.0010618 0)
(1.00587 0.0012885 0)
(1.00623 0.00157626 0)
(1.00632 0.00198689 0)
(1.00632 0.00283091 0)
(1.00641 0.00399104 0)
(1.0064 0.00558779 0)
(1.00625 0.00757649 0)
(1.00596 0.00972849 0)
(1.00028 0.0015647 0)
(1.00146 -0.00237853 0)
(0.999808 0.00139568 0)
(1.00184 -0.0015105 0)
(1.00144 -0.00133269 0)
(1.00115 0.00090425 0)
(1.00275 -0.000463105 0)
(1.00213 0.000565375 0)
(1.00307 0.000820816 0)
(1.00474 0.000758776 0)
(1.00496 0.00117647 0)
(1.0052 0.00102046 0)
(1.00589 0.00121679 0)
(1.00626 0.00157131 0)
(1.00638 0.0019872 0)
(1.00644 0.0028794 0)
(1.00659 0.00408714 0)
(1.00666 0.00568852 0)
(1.00658 0.00762554 0)
(1.00632 0.00976451 0)
(1.00025 0.00150904 0)
(1.00146 -0.00227671 0)
(0.999824 0.00123371 0)
(1.00178 -0.00138811 0)
(1.00152 -0.00144055 0)
(1.00118 0.000936939 0)
(1.00276 -0.000544451 0)
(1.00218 0.000533143 0)
(1.00308 0.000780094 0)
(1.00476 0.000665575 0)
(1.00496 0.00112028 0)
(1.0052 0.000985423 0)
(1.00591 0.00113899 0)
(1.00629 0.00157147 0)
(1.00645 0.00201149 0)
(1.00657 0.00295277 0)
(1.00679 0.00420545 0)
(1.00692 0.00580515 0)
(1.00692 0.00766458 0)
(1.00668 0.00976456 0)
(1.00023 0.0014498 0)
(1.00146 -0.00216159 0)
(0.999841 0.00105779 0)
(1.00172 -0.00125843 0)
(1.00159 -0.00155327 0)
(1.00122 0.00095724 0)
(1.00276 -0.000603804 0)
(1.00224 0.000468367 0)
(1.00309 0.000765696 0)
(1.00477 0.000561729 0)
(1.00497 0.00105971 0)
(1.00519 0.000963467 0)
(1.00593 0.00106655 0)
(1.00633 0.00158073 0)
(1.00653 0.00208612 0)
(1.00671 0.00306201 0)
(1.00699 0.00435946 0)
(1.00719 0.00594383 0)
(1.00726 0.00771708 0)
(1.00706 0.00973637 0)
(1.0002 0.00138707 0)
(1.00145 -0.00203339 0)
(0.999859 0.000871423 0)
(1.00166 -0.0011276 0)
(1.00167 -0.00166303 0)
(1.00126 0.000954322 0)
(1.00275 -0.000634205 0)
(1.0023 0.000377041 0)
(1.00309 0.000765557 0)
(1.00478 0.000464187 0)
(1.00499 0.000992774 0)
(1.00518 0.000969007 0)
(1.00595 0.0010285 0)
(1.00639 0.00162049 0)
(1.00662 0.00222204 0)
(1.00687 0.0031965 0)
(1.00721 0.00452683 0)
(1.00747 0.00609619 0)
(1.0076 0.00778971 0)
(1.00745 0.00969466 0)
(1.00018 0.00132183 0)
(1.00144 -0.00189587 0)
(0.999877 0.000679627 0)
(1.0016 -0.00100729 0)
(1.00175 -0.00175566 0)
(1.0013 0.000921568 0)
(1.00274 -0.000635255 0)
(1.00236 0.000268108 0)
(1.00309 0.000772809 0)
(1.00479 0.000382453 0)
(1.00501 0.000919488 0)
(1.00517 0.00100724 0)
(1.00598 0.0010493 0)
(1.00646 0.00170974 0)
(1.00671 0.00239775 0)
(1.00703 0.00333851 0)
(1.00744 0.00466862 0)
(1.00775 0.00623846 0)
(1.00793 0.00786549 0)
(1.00783 0.00964981 0)
(1.00016 0.00125475 0)
(1.00142 -0.0017515 0)
(0.999895 0.000486724 0)
(1.00153 -0.000902189 0)
(1.00182 -0.00183114 0)
(1.00134 0.000856992 0)
(1.00272 -0.000609583 0)
(1.00242 0.000144569 0)
(1.00309 0.000787233 0)
(1.00479 0.000323812 0)
(1.00503 0.000857117 0)
(1.00516 0.00107714 0)
(1.00601 0.00112785 0)
(1.00653 0.00183496 0)
(1.00682 0.00258633 0)
(1.00719 0.00347279 0)
(1.00767 0.00476605 0)
(1.00803 0.00633486 0)
(1.00826 0.00792021 0)
(1.0082 0.009592 0)
(1.00013 0.00118676 0)
(1.0014 -0.00160762 0)
(0.999913 0.000304111 0)
(1.00146 -0.000823128 0)
(1.00189 -0.00188325 0)
(1.00139 0.000761519 0)
(1.0027 -0.00056611 0)
(1.00248 2.96393e-05 0)
(1.0031 0.000799582 0)
(1.00479 0.000309949 0)
(1.00506 0.000825924 0)
(1.00516 0.00118296 0)
(1.00604 0.00124166 0)
(1.00662 0.00196525 0)
(1.00692 0.00277033 0)
(1.00735 0.00360298 0)
(1.00791 0.0048239 0)
(1.00833 0.00637577 0)
(1.00859 0.00793958 0)
(1.00855 0.00951418 0)
(1.00011 0.00112032 0)
(1.00137 -0.00146838 0)
(0.999928 0.000140051 0)
(1.0014 -0.000777771 0)
(1.00195 -0.00191232 0)
(1.00143 0.000643121 0)
(1.00267 -0.000516229 0)
(1.00254 -6.82928e-05 0)
(1.0031 0.000814169 0)
(1.00478 0.000341349 0)
(1.0051 0.000831874 0)
(1.00517 0.00131163 0)
(1.00608 0.00136572 0)
(1.00671 0.00206911 0)
(1.00703 0.00293065 0)
(1.0075 0.00373283 0)
(1.00815 0.00485163 0)
(1.00863 0.00636542 0)
(1.00893 0.00791362 0)
(1.0089 0.00941087 0)
(1.00008 0.00105296 0)
(1.00134 -0.00133356 0)
(0.99994 1.85963e-06 0)
(1.00133 -0.000757014 0)
(1.00201 -0.00192774 0)
(1.00149 0.000515887 0)
(1.00265 -0.000459954 0)
(1.0026 -0.000135991 0)
(1.00311 0.000840987 0)
(1.00477 0.000404629 0)
(1.00514 0.000868119 0)
(1.00518 0.00144721 0)
(1.0061 0.00149037 0)
(1.00681 0.00213287 0)
(1.00714 0.00305522 0)
(1.00765 0.00386255 0)
(1.00839 0.00487091 0)
(1.00894 0.00631569 0)
(1.00926 0.00784328 0)
(1.00924 0.00928046 0)
(1.00006 0.000989148 0)
(1.0013 -0.00121192 0)
(0.999949 -0.000102347 0)
(1.00126 -0.000765457 0)
(1.00206 -0.00192587 0)
(1.00154 0.000387161 0)
(1.00262 -0.000399567 0)
(1.00266 -0.0001628 0)
(1.00313 0.000884131 0)
(1.00475 0.000496837 0)
(1.00519 0.000914155 0)
(1.0052 0.00158225 0)
(1.00612 0.00161837 0)
(1.00691 0.00216625 0)
(1.00727 0.00314268 0)
(1.00779 0.00399158 0)
(1.00861 0.00490572 0)
(1.00925 0.00624786 0)
(1.0096 0.00773799 0)
(1.00957 0.00912592 0)
(1.00004 0.000929804 0)
(1.00126 -0.00110766 0)
(0.999953 -0.000176704 0)
(1.00118 -0.000789309 0)
(1.00211 -0.00191707 0)
(1.0016 0.000268763 0)
(1.00259 -0.000336211 0)
(1.00271 -0.000164331 0)
(1.00315 0.000939591 0)
(1.00474 0.000606552 0)
(1.00524 0.000949812 0)
(1.00522 0.00169675 0)
(1.00613 0.00175335 0)
(1.007 0.00218754 0)
(1.00741 0.00319132 0)
(1.00793 0.00410808 0)
(1.00881 0.00496086 0)
(1.00955 0.00617713 0)
(1.00994 0.00760332 0)
(1.0099 0.0089449 0)
(1.00001 0.000872626 0)
(1.00121 -0.00102047 0)
(0.999952 -0.000223227 0)
(1.00111 -0.000806907 0)
(1.00215 -0.00191485 0)
(1.00166 0.000172902 0)
(1.00256 -0.000264283 0)
(1.00277 -0.000144 0)
(1.00317 0.00100453 0)
(1.00471 0.000723307 0)
(1.00529 0.000971276 0)
(1.00525 0.00178242 0)
(1.00613 0.00189639 0)
(1.00709 0.00222188 0)
(1.00757 0.0032052 0)
(1.00808 0.00419738 0)
(1.00901 0.0050264 0)
(1.00984 0.00611366 0)
(1.01029 0.00744727 0)
(1.01023 0.00873747 0)
(0.999991 0.000821523 0)
(1.00117 -0.000955575 0)
(0.999949 -0.000242017 0)
(1.00103 -0.000812132 0)
(1.00219 -0.00190885 0)
(1.00173 9.35596e-05 0)
(1.00253 -0.000181324 0)
(1.00283 -0.000111004 0)
(1.0032 0.00107424 0)
(1.00468 0.000848471 0)
(1.00533 0.000984407 0)
(1.00529 0.00184781 0)
(1.00613 0.00204942 0)
(1.00717 0.00228554 0)
(1.00773 0.00319557 0)
(1.00825 0.00424697 0)
(1.0092 0.00508438 0)
(1.01011 0.0060586 0)
(1.01062 0.00727798 0)
(1.01055 0.00850542 0)
(0.99997 0.000776287 0)
(1.00112 -0.000917437 0)
(0.999944 -0.000237885 0)
(1.00095 -0.000790058 0)
(1.00223 -0.00189207 0)
(1.00181 3.00035e-05 0)
(1.00251 -8.63403e-05 0)
(1.00289 -7.66991e-05 0)
(1.00324 0.00113264 0)
(1.00464 0.000985527 0)
(1.00538 0.000995843 0)
(1.00534 0.00188592 0)
(1.00613 0.00220463 0)
(1.00724 0.00237718 0)
(1.0079 0.00317799 0)
(1.00843 0.00425564 0)
(1.00938 0.0051227 0)
(1.01036 0.00601033 0)
(1.01094 0.00710581 0)
(1.01087 0.00825518 0)
(0.999949 0.000736678 0)
(1.00108 -0.000900803 0)
(0.999942 -0.00022362 0)
(1.00087 -0.000735189 0)
(1.00227 -0.00186511 0)
(1.00189 -1.35885e-05 0)
(1.00249 2.28138e-05 0)
(1.00294 -4.30965e-05 0)
(1.00328 0.00117091 0)
(1.00459 0.00113554 0)
(1.00541 0.00102163 0)
(1.00541 0.00188911 0)
(1.00613 0.00234659 0)
(1.00728 0.00249287 0)
(1.00806 0.00316869 0)
(1.00863 0.00423082 0)
(1.00957 0.00513212 0)
(1.01059 0.00596106 0)
(1.01124 0.00693568 0)
(1.01119 0.00799329 0)
(0.999929 0.000702133 0)
(1.00104 -0.000900236 0)
(0.999944 -0.000205303 0)
(1.00079 -0.000652463 0)
(1.0023 -0.00182163 0)
(1.00199 -4.12467e-05 0)
(1.00247 0.000141553 0)
(1.003 -5.91832e-06 0)
(1.00334 0.00118545 0)
(1.00454 0.00129269 0)
(1.00543 0.00107787 0)
(1.00549 0.00186513 0)
(1.00615 0.00245916 0)
(1.00732 0.00262841 0)
(1.00821 0.00317951 0)
(1.00883 0.00418201 0)
(1.00977 0.00510394 0)
(1.01081 0.00589731 0)
(1.01152 0.00676498 0)
(1.01149 0.00772338 0)
(0.999911 0.000671872 0)
(1.001 -0.000909209 0)
(0.999955 -0.00018995 0)
(1.0007 -0.000544461 0)
(1.00233 -0.0017625 0)
(1.00209 -6.32674e-05 0)
(1.00246 0.00027226 0)
(1.00305 4.19301e-05 0)
(1.00341 0.00117285 0)
(1.0045 0.00144253 0)
(1.00543 0.00116907 0)
(1.00558 0.0018283 0)
(1.00619 0.00252615 0)
(1.00735 0.00276734 0)
(1.00835 0.00321556 0)
(1.00904 0.00412416 0)
(1.00997 0.00504191 0)
(1.01102 0.00581442 0)
(1.01178 0.00659525 0)
(1.01177 0.0074539 0)
(0.999895 0.000643584 0)
(1.00097 -0.000917174 0)
(0.999976 -0.000190244 0)
(1.00062 -0.00041428 0)
(1.00236 -0.00168287 0)
(1.00221 -8.45244e-05 0)
(1.00245 0.000425803 0)
(1.00309 0.00011191 0)
(1.00349 0.00113982 0)
(1.00446 0.00157519 0)
(1.00542 0.00129516 0)
(1.00567 0.00180121 0)
(1.00625 0.00254631 0)
(1.00738 0.00288409 0)
(1.00846 0.00327013 0)
(1.00924 0.00406774 0)
(1.01018 0.0049521 0)
(1.01123 0.00570712 0)
(1.01201 0.00642064 0)
(1.01204 0.00718521 0)
(0.99988 0.000617421 0)
(1.00094 -0.000921126 0)
(1.00001 -0.000207829 0)
(1.00054 -0.000264807 0)
(1.00238 -0.00157526 0)
(1.00234 -0.000102233 0)
(1.00245 0.000598509 0)
(1.00312 0.000214532 0)
(1.00358 0.00109036 0)
(1.00444 0.00167931 0)
(1.00539 0.00144721 0)
(1.00575 0.00180102 0)
(1.00633 0.00253303 0)
(1.00742 0.00296217 0)
(1.00856 0.00332903 0)
(1.00943 0.00401867 0)
(1.01039 0.00484374 0)
(1.01143 0.00557479 0)
(1.01223 0.00623504 0)
(1.01228 0.0069158 0)
(0.999868 0.000592657 0)
(1.00091 -0.000921123 0)
(1.00006 -0.000235926 0)
(1.00047 -9.76113e-05 0)
(1.0024 -0.00143934 0)
(1.00249 -0.00011274 0)
(1.00247 0.000778854 0)
(1.00313 0.000359307 0)
(1.00368 0.00103256 0)
(1.00445 0.00174245 0)
(1.00536 0.00161091 0)
(1.00582 0.00183359 0)
(1.00642 0.00250258 0)
(1.00748 0.00299843 0)
(1.00866 0.00337487 0)
(1.0096 0.00397457 0)
(1.01059 0.00472342 0)
(1.01163 0.00541832 0)
(1.01244 0.00603257 0)
(1.01251 0.00664214 0)
(0.999858 0.000569582 0)
(1.00089 -0.000911726 0)
(1.00012 -0.00027825 0)
(1.00041 7.8852e-05 0)
(1.00241 -0.00127208 0)
(1.00265 -0.000127073 0)
(1.0025 0.000952264 0)
(1.00313 0.000552373 0)
(1.00378 0.000993241 0)
(1.00448 0.00176364 0)
(1.00533 0.00177402 0)
(1.00587 0.00190252 0)
(1.00652 0.00247384 0)
(1.00755 0.00300004 0)
(1.00875 0.00339782 0)
(1.00976 0.00392977 0)
(1.01078 0.00459505 0)
(1.01182 0.00523897 0)
(1.01264 0.00580733 0)
(1.01271 0.00635663 0)
(0.999851 0.000544459 0)
(1.00086 -0.000882603 0)
(1.0002 -0.000334551 0)
(1.00037 0.000261266 0)
(1.0024 -0.00106803 0)
(1.00282 -0.000152841 0)
(1.00256 0.00110065 0)
(1.00311 0.000791883 0)
(1.00386 0.000996137 0)
(1.00454 0.00174522 0)
(1.00531 0.0019147 0)
(1.0059 0.00200137 0)
(1.00661 0.0024605 0)
(1.00764 0.00297884 0)
(1.00884 0.00339814 0)
(1.0099 0.0038833 0)
(1.01096 0.00446706 0)
(1.01201 0.00504731 0)
(1.01282 0.00556413 0)
(1.0129 0.0060585 0)
(0.999847 0.000515154 0)
(1.00084 -0.000829402 0)
(1.0003 -0.000397891 0)
(1.00035 0.000439451 0)
(1.00239 -0.00082068 0)
(1.003 -0.000175796 0)
(1.00264 0.00120946 0)
(1.00309 0.00106365 0)
(1.00392 0.00105683 0)
(1.00461 0.00170611 0)
(1.00531 0.00201596 0)
(1.00592 0.00211438 0)
(1.00669 0.002467 0)
(1.00773 0.00294259 0)
(1.00893 0.00337179 0)
(1.01003 0.00382576 0)
(1.01112 0.00433747 0)
(1.01217 0.00484847 0)
(1.01299 0.00530735 0)
(1.01308 0.00574733 0)
(0.999846 0.000485023 0)
(1.00081 -0.000756857 0)
(1.00042 -0.000456421 0)
(1.00035 0.000604812 0)
(1.00236 -0.000532733 0)
(1.00318 -0.000181004 0)
(1.00277 0.00126798 0)
(1.00307 0.00133707 0)
(1.00396 0.00117484 0)
(1.00469 0.00167115 0)
(1.00534 0.00207325 0)
(1.00594 0.0022238 0)
(1.00675 0.00249453 0)
(1.00782 0.00290158 0)
(1.00903 0.00331906 0)
(1.01015 0.00374937 0)
(1.01127 0.004202 0)
(1.01232 0.00464574 0)
(1.01315 0.00504285 0)
(1.01324 0.00542579 0)
(0.999849 0.000452486 0)
(1.00078 -0.00065829 0)
(1.00054 -0.000504931 0)
(1.00038 0.000747738 0)
(1.00232 -0.00021172 0)
(1.00334 -0.000152319 0)
(1.00292 0.00128073 0)
(1.00306 0.00159424 0)
(1.00397 0.00135004 0)
(1.00477 0.00166261 0)
(1.00538 0.00209366 0)
(1.00596 0.00231311 0)
(1.0068 0.00253661 0)
(1.0079 0.00286445 0)
(1.00914 0.00324406 0)
(1.01027 0.0036492 0)
(1.0114 0.00405533 0)
(1.01246 0.00443919 0)
(1.01328 0.00477482 0)
(1.01338 0.00509771 0)
(0.999854 0.000414612 0)
(1.00075 -0.000526139 0)
(1.00068 -0.000541183 0)
(1.00044 0.000866795 0)
(1.00227 0.000124504 0)
(1.00349 -8.37986e-05 0)
(1.00311 0.00124879 0)
(1.00307 0.00181332 0)
(1.00395 0.00157409 0)
(1.00483 0.00169875 0)
(1.00545 0.00209628 0)
(1.00599 0.0023767 0)
(1.00684 0.00258096 0)
(1.00797 0.00283401 0)
(1.00923 0.00315122 0)
(1.01038 0.00352147 0)
(1.01152 0.00388967 0)
(1.01257 0.00422395 0)
(1.01339 0.00450319 0)
(1.0135 0.00476597 0)
(0.999863 0.000374107 0)
(1.00071 -0.000366997 0)
(1.00081 -0.000550348 0)
(1.00053 0.000945555 0)
(1.00222 0.000474081 0)
(1.0036 3.74064e-05 0)
(1.00332 0.0011917 0)
(1.00312 0.00197676 0)
(1.00392 0.00181914 0)
(1.00487 0.00178486 0)
(1.00552 0.00209898 0)
(1.00603 0.00241712 0)
(1.00687 0.00261919 0)
(1.00802 0.00281129 0)
(1.00931 0.00305196 0)
(1.01049 0.00337171 0)
(1.01162 0.00370145 0)
(1.01266 0.00399372 0)
(1.01348 0.00422338 0)
(1.01359 0.0044283 0)
(0.999875 0.000333598 0)
(1.00067 -0.000191258 0)
(1.00094 -0.00051972 0)
(1.00066 0.000977654 0)
(1.00216 0.000822747 0)
(1.00368 0.000226076 0)
(1.00354 0.00114389 0)
(1.00321 0.00208494 0)
(1.00389 0.00206297 0)
(1.00487 0.00192251 0)
(1.00558 0.00212076 0)
(1.00609 0.0024388 0)
(1.0069 0.00264559 0)
(1.00804 0.00279009 0)
(1.00937 0.00295321 0)
(1.01058 0.0032052 0)
(1.01172 0.00348722 0)
(1.01274 0.00373958 0)
(1.01354 0.00392672 0)
(1.01365 0.0040788 0)
(0.999888 0.000296039 0)
(1.00062 -1.6466e-05 0)
(1.00105 -0.000440707 0)
(1.0008 0.000985268 0)
(1.00212 0.0011414 0)
(1.00371 0.000478246 0)
(1.00375 0.00112835 0)
(1.00333 0.00214025 0)
(1.00386 0.0022884 0)
(1.00485 0.00210048 0)
(1.00562 0.00217624 0)
(1.00614 0.00244988 0)
(1.00692 0.00265997 0)
(1.00805 0.00276741 0)
(1.00939 0.00286166 0)
(1.01064 0.00303149 0)
(1.01179 0.00325347 0)
(1.0128 0.00346079 0)
(1.01357 0.00360969 0)
(1.01368 0.00371481 0)
(0.999903 0.000263632 0)
(1.00057 0.000156227 0)
(1.00114 -0.0003156 0)
(1.00096 0.000976934 0)
(1.00209 0.00142082 0)
(1.00371 0.000784309 0)
(1.00394 0.00116916 0)
(1.00349 0.00215966 0)
(1.00385 0.00248137 0)
(1.0048 0.00229931 0)
(1.00563 0.00226652 0)
(1.00618 0.00246293 0)
(1.00693 0.00266314 0)
(1.00803 0.00274245 0)
(1.00939 0.00277745 0)
(1.01066 0.00285938 0)
(1.01184 0.00300903 0)
(1.01284 0.0031597 0)
(1.01359 0.00326708 0)
(1.01367 0.00332923 0)
(0.999918 0.000236467 0)
(1.00051 0.000323724 0)
(1.00121 -0.000149547 0)
(1.00114 0.000977137 0)
(1.00209 0.0016501 0)
(1.00367 0.00112789 0)
(1.00409 0.00127452 0)
(1.00365 0.00217195 0)
(1.00385 0.00263275 0)
(1.00473 0.00250746 0)
(1.00561 0.0023875 0)
(1.0062 0.00249475 0)
(1.00694 0.00265719 0)
(1.008 0.00271389 0)
(1.00934 0.00269118 0)
(1.01065 0.00269135 0)
(1.01185 0.00275518 0)
(1.01284 0.00283975 0)
(1.01357 0.00289616 0)
(1.01364 0.00291682 0)
(0.999933 0.000220602 0)
(1.00046 0.0004752 0)
(1.00125 5.03908e-05 0)
(1.00131 0.000997121 0)
(1.00211 0.00183406 0)
(1.00361 0.00147946 0)
(1.00419 0.00144814 0)
(1.00382 0.00220122 0)
(1.00389 0.00275024 0)
(1.00465 0.00271052 0)
(1.00555 0.00253754 0)
(1.00619 0.00255086 0)
(1.00692 0.00265291 0)
(1.00793 0.00267812 0)
(1.00925 0.00260254 0)
(1.01057 0.0025243 0)
(1.0118 0.00249779 0)
(1.0128 0.00250629 0)
(1.01351 0.0025061 0)
(1.01356 0.00248103 0)
(0.999948 0.000214365 0)
(1.00041 0.000611329 0)
(1.00127 0.000281312 0)
(1.00147 0.00104897 0)
(1.00215 0.00198433 0)
(1.00354 0.0018189 0)
(1.00424 0.00168822 0)
(1.00397 0.0022725 0)
(1.00393 0.00285521 0)
(1.00456 0.00290255 0)
(1.00545 0.00271035 0)
(1.00614 0.00263001 0)
(1.00687 0.00265667 0)
(1.00784 0.00263266 0)
(1.00912 0.00250928 0)
(1.01044 0.00235391 0)
(1.01169 0.00223901 0)
(1.0127 0.00216384 0)
(1.0134 0.00210187 0)
(1.01344 0.00202592 0)
(0.999961 0.000218541 0)
(1.00037 0.000730452 0)
(1.00127 0.000532747 0)
(1.00161 0.00114694 0)
(1.00221 0.00211482 0)
(1.00347 0.00213953 0)
(1.00424 0.00197762 0)
(1.00409 0.00240315 0)
(1.00399 0.00296643 0)
(1.00448 0.00308822 0)
(1.00532 0.00289953 0)
(1.00603 0.00273808 0)
(1.00677 0.00267617 0)
(1.0077 0.00258866 0)
(1.00894 0.00241061 0)
(1.01025 0.00218223 0)
(1.01151 0.00197778 0)
(1.01253 0.0018149 0)
(1.01323 0.0016809 0)
(1.01327 0.00154971 0)
(0.999973 0.000235816 0)
(1.00034 0.00083302 0)
(1.00124 0.000791705 0)
(1.00172 0.00128868 0)
(1.00229 0.00224147 0)
(1.0034 0.0024386 0)
(1.00421 0.00229635 0)
(1.00416 0.00259015 0)
(1.00403 0.0030967 0)
(1.00439 0.00327154 0)
(1.00515 0.00310085 0)
(1.00588 0.00287663 0)
(1.00662 0.00272107 0)
(1.00752 0.00255544 0)
(1.0087 0.00231245 0)
(1.00999 0.00200789 0)
(1.01125 0.00171237 0)
(1.01229 0.00145454 0)
(1.01299 0.00123722 0)
(1.01303 0.00104107 0)
(0.999982 0.000262256 0)
(1.00031 0.000929605 0)
(1.00121 0.00104674 0)
(1.00181 0.00147277 0)
(1.00236 0.00237456 0)
(1.00334 0.0027163 0)
(1.00415 0.00263399 0)
(1.0042 0.00282533 0)
(1.00406 0.00325843 0)
(1.0043 0.00345883 0)
(1.00496 0.0033184 0)
(1.00566 0.00304589 0)
(1.00641 0.0028013 0)
(1.00726 0.00254223 0)
(1.0084 0.00222217 0)
(1.00964 0.00183194 0)
(1.0109 0.00143934 0)
(1.01194 0.00107711 0)
(1.01266 0.000762625 0)
(1.0127 0.000487608 0)
(0.99999 0.000297104 0)
(1.00029 0.0010225 0)
(1.00117 0.00130366 0)
(1.00187 0.00169068 0)
(1.00243 0.00252652 0)
(1.00329 0.00297627 0)
(1.00406 0.00298268 0)
(1.00419 0.00310503 0)
(1.00407 0.00346223 0)
(1.0042 0.00366489 0)
(1.00474 0.00355689 0)
(1.00539 0.00325513 0)
(1.00611 0.00292666 0)
(1.00693 0.00256692 0)
(1.008 0.00215038 0)
(1.0092 0.00166149 0)
(1.01043 0.0011584 0)
(1.01148 0.000674861 0)
(1.01221 0.000249703 0)
(1.01228 -0.000126326 0)
(0.999996 0.000340985 0)
(1.00027 0.00111782 0)
(1.00113 0.00155235 0)
(1.0019 0.00194179 0)
(1.00249 0.00270795 0)
(1.00325 0.00322925 0)