/*--------------------------------*- C++ -*----------------------------------*\
| =========                 |                                                 |
| \\      /  F ield         | OpenFOAM: The Open Source CFD Toolbox           |
|  \\    /   O peration     | Version:  v2012                                 |
|   \\  /    A nd           | Website:  www.openfoam.com                      |
|    \\/     M anipulation  |                                                 |
\*---------------------------------------------------------------------------*/
FoamFile
{
    version     2.0;
    format      ascii;
    class       surfaceScalarField;
    location    "3.5";
    object      phi;
}
// * * * * * * * * * * * * * * * * * * * * * * * * * * * * * * * * * * * * * //

dimensions      [0 3 -1 0 0 0 0];
oriented        oriented;


internalField   nonuniform List<scalar> 
34900
(
1.18121e-06
6.73655e-08
1.1695e-06
3.45205e-07
1.17016e-06
-9.57423e-08
1.15514e-06
-3.92561e-08
1.16113e-06
-4.53441e-09
1.15105e-06
-1.76492e-08
1.15694e-06
4.01711e-08
1.14794e-06
-3.00889e-08
1.15382e-06
4.64313e-08
1.14556e-06
-1.29861e-08
1.15188e-06
3.76865e-08
1.14347e-06
-1.79161e-08
1.1503e-06
2.1699e-08
1.14034e-06
-3.17656e-08
1.14788e-06
1.62097e-08
1.13572e-06
-4.06357e-08
1.14417e-06
2.51782e-08
1.12924e-06
-4.74642e-08
1.13439e-06
5.04144e-08
-5.78455e-08
1.09214e-06
1.23503e-06
5.65962e-08
1.22776e-06
3.52476e-07
1.22677e-06
-9.4757e-08
1.21242e-06
-2.49022e-08
1.21618e-06
-8.29048e-09
1.20849e-06
-9.96069e-09
1.21112e-06
3.7535e-08
1.20584e-06
-2.48088e-08
1.20739e-06
4.48865e-08
1.20425e-06
-9.84556e-09
1.20466e-06
3.72784e-08
1.20367e-06
-1.69295e-08
1.20223e-06
2.31392e-08
1.20286e-06
-3.23926e-08
1.19794e-06
2.11288e-08
1.20153e-06
-4.42267e-08
1.19101e-06
3.57008e-08
1.1988e-06
-5.52556e-08
1.17677e-06
7.24388e-08
-5.67696e-08
1.1757e-06
1.28948e-06
4.99035e-08
1.28943e-06
3.52527e-07
1.28481e-06
-9.01449e-08
1.27452e-06
-1.46066e-08
1.27285e-06
-6.61763e-09
1.27046e-06
-7.57529e-09
1.26751e-06
4.04815e-08
1.26804e-06
-2.53386e-08
1.26349e-06
4.94401e-08
1.26676e-06
-1.31117e-08
1.26101e-06
4.30242e-08
1.26648e-06
-2.2403e-08
1.25934e-06
3.02823e-08
1.26539e-06
-3.84463e-08
1.25669e-06
2.98334e-08
1.26253e-06
-5.00695e-08
1.25342e-06
4.48105e-08
1.25636e-06
-5.81939e-08
1.2467e-06
8.20997e-08
-4.03567e-08
1.23029e-06
1.34505e-06
4.89582e-08
1.35304e-06
3.44534e-07
1.34501e-06
-8.21151e-08
1.33916e-06
-8.75707e-09
1.33204e-06
5.06481e-10
1.3343e-06
-9.83736e-09
1.32725e-06
4.75316e-08
1.33155e-06
-2.96425e-08
1.32405e-06
5.69471e-08
1.32969e-06
-1.87506e-08
1.323e-06
4.97104e-08
1.32894e-06
-2.83454e-08
1.32311e-06
3.61094e-08
1.32737e-06
-4.27032e-08
1.32236e-06
3.48409e-08
1.32424e-06
-5.19422e-08
1.32076e-06
4.82842e-08
1.31815e-06
-5.55768e-08
1.3148e-06
8.54497e-08
-2.05762e-08
1.29502e-06
1.40333e-06
5.39817e-08
1.41771e-06
3.30154e-07
1.40816e-06
-7.25643e-08
1.40528e-06
-5.87803e-09
1.39501e-06
1.0779e-08
1.39921e-06
-1.40388e-08
1.39149e-06
5.52488e-08
1.39621e-06
-3.43553e-08
1.38972e-06
6.3434e-08
1.39417e-06
-2.32053e-08
1.39009e-06
5.37963e-08
1.39387e-06
-3.21316e-08
1.39127e-06
3.8715e-08
1.39306e-06
-4.44945e-08
1.39103e-06
3.68706e-08
1.39071e-06
-5.16224e-08
1.38938e-06
4.9614e-08
1.38475e-06
-5.09501e-08
1.38305e-06
8.71514e-08
-7.62263e-10
1.36324e-06
1.46616e-06
6.34987e-08
1.48365e-06
3.12665e-07
1.47513e-06
-6.40431e-08
1.47329e-06
-4.03804e-09
1.46287e-06
2.11948e-08
1.46654e-06
-1.77025e-08
1.46074e-06
6.10452e-08
1.46398e-06
-3.75959e-08
1.46011e-06
6.73061e-08
1.46262e-06
-2.57216e-08
1.46118e-06
5.52412e-08
1.46334e-06
-3.42972e-08
1.4627e-06
3.93609e-08
1.46339e-06
-4.51889e-08
1.46256e-06
3.76998e-08
1.46139e-06
-5.04485e-08
1.46088e-06
5.01208e-08
1.45489e-06
-4.49576e-08
1.45442e-06
8.76211e-08
1.90859e-08
1.43457e-06
1.5348e-06
7.49123e-08
1.55212e-06
2.95346e-07
1.54633e-06
-5.82544e-08
1.54443e-06
-2.13779e-09
1.53584e-06
2.97845e-08
1.53803e-06
-1.98901e-08
1.5347e-06
6.43781e-08
1.53643e-06
-3.93306e-08
1.53468e-06
6.90544e-08
1.53602e-06
-2.70532e-08
1.53602e-06
5.52344e-08
1.53751e-06
-3.57878e-08
1.53769e-06
3.91854e-08
1.53794e-06
-4.54426e-08
1.5377e-06
3.79431e-08
1.53582e-06
-4.85708e-08
1.53605e-06
4.98937e-08
1.52863e-06
-3.75434e-08
1.52926e-06
8.69964e-08
3.86445e-08
1.5097e-06
1.60938e-06
8.56582e-08
1.62449e-06
2.80236e-07
1.62158e-06
-5.53381e-08
1.61962e-06
-1.83334e-10
1.61334e-06
3.60651e-08
1.61438e-06
-2.09318e-08
1.6128e-06
6.59658e-08
1.61372e-06
-4.02523e-08
1.61314e-06
6.96274e-08
1.61403e-06
-2.79343e-08
1.61465e-06
5.46099e-08
1.61585e-06
-3.69832e-08
1.61639e-06
3.86374e-08
1.61626e-06
-4.53064e-08
1.61651e-06
3.76869e-08
1.61381e-06
-4.58635e-08
1.6148e-06
4.89048e-08
1.60602e-06
-2.8768e-08
1.60743e-06
8.55887e-08
5.73762e-08
1.5887e-06
1.68909e-06
9.41445e-08
1.70145e-06
2.67876e-07
1.70042e-06
-5.43062e-08
1.69895e-06
1.28695e-09
1.69459e-06
4.0423e-08
1.6952e-06
-2.1539e-08
1.69451e-06
6.66542e-08
1.69516e-06
-4.09069e-08
1.69517e-06
6.96205e-08
1.69591e-06
-2.86731e-08
1.69682e-06
5.37009e-08
1.69773e-06
-3.78967e-08
1.69855e-06
3.78201e-08
1.6979e-06
-4.46599e-08
1.6987e-06
3.68869e-08
1.69505e-06
-4.22137e-08
1.69679e-06
4.71614e-08
1.68685e-06
-1.88243e-08
1.68868e-06
8.3761e-08
7.47362e-08
1.67132e-06
1.77292e-06
9.99433e-08
1.78296e-06
2.57836e-07
1.78261e-06
-5.3952e-08
1.78203e-06
1.86364e-09
1.77903e-06
4.34212e-08
1.77972e-06
-2.22299e-08
1.77944e-06
6.69412e-08
1.78005e-06
-4.15184e-08
1.78039e-06
6.92751e-08
1.78103e-06
-2.93119e-08
1.78215e-06
5.25815e-08
1.78269e-06
-3.84357e-08
1.78381e-06
3.66982e-08
1.78253e-06
-4.33739e-08
1.78395e-06
3.54641e-08
1.77931e-06
-3.75762e-08
1.78174e-06
4.47363e-08
1.77095e-06
-8.034e-09
1.77278e-06
8.19259e-08
9.0224e-08
1.75729e-06
1.8603e-06
1.03388e-07
1.86875e-06
2.49391e-07
1.86826e-06
-5.34588e-08
1.86861e-06
1.50833e-09
1.86653e-06
4.55051e-08
1.86752e-06
-2.3224e-08
1.86744e-06
6.7019e-08
1.86804e-06
-4.21193e-08
1.86866e-06
6.86585e-08
1.86915e-06
-2.97973e-08
1.87051e-06
5.12201e-08
1.87057e-06
-3.8502e-08
1.8721e-06
3.51776e-08
1.87008e-06
-4.13539e-08
1.87218e-06
3.33559e-08
1.86661e-06
-3.20006e-08
1.86954e-06
4.18046e-08
1.85833e-06
3.17233e-09
1.85973e-06
8.05292e-08
1.03448e-07
1.84651e-06
1.95117e-06
1.05059e-07
1.95863e-06
2.4193e-07
1.95767e-06
-5.2504e-08
1.95875e-06
4.30622e-10
1.95728e-06
4.69789e-08
1.9586e-06
-2.45432e-08
1.95869e-06
6.69299e-08
1.95924e-06
-4.267e-08
1.96013e-06
6.77653e-08
1.96038e-06
-3.00503e-08
1.96206e-06
4.954e-08
1.96157e-06
-3.80112e-08
1.9636e-06
3.31501e-08
1.9608e-06
-3.85532e-08
1.9636e-06
3.05596e-08
1.95723e-06
-2.56403e-08
1.96039e-06
3.86456e-08
1.94924e-06
1.43234e-08
1.94981e-06
7.99627e-08
1.14218e-07
1.93904e-06
2.04577e-06
1.05477e-07
2.05263e-06
2.3507e-07
2.05122e-06
-5.1091e-08
2.05276e-06
-1.10994e-09
2.0517e-06
4.80408e-08
2.05327e-06
-2.61168e-08
2.05354e-06
6.66596e-08
2.05398e-06
-4.31044e-08
2.05519e-06
6.65497e-08
2.05513e-06
-2.99852e-08
2.05722e-06
4.74442e-08
2.0561e-06
-3.68939e-08
2.05873e-06
3.05266e-08
2.05515e-06
-3.4979e-08
2.05856e-06
2.71574e-08
2.05166e-06
-1.87429e-08
2.05468e-06
3.5627e-08
2.04404e-06
2.49627e-08
2.0435e-06
8.04995e-08
1.22575e-07
2.03514e-06
2.14447e-06
1.05004e-07
2.15093e-06
2.28612e-07
2.14921e-06
-4.93639e-08
2.151e-06
-2.90737e-09
2.15024e-06
4.88037e-08
2.15196e-06
-2.78403e-08
2.15246e-06
6.61677e-08
2.15269e-06
-4.33409e-08
2.1543e-06
6.49369e-08
2.15383e-06
-2.9514e-08
2.15645e-06
4.48312e-08
2.15465e-06
-3.51007e-08
2.15792e-06
2.72592e-08
2.15365e-06
-3.07042e-08
2.15748e-06
2.33232e-08
2.15036e-06
-1.16229e-08
2.15284e-06
3.31476e-08
2.14309e-06
3.47097e-08
2.14133e-06
8.22572e-08
1.28772e-07
2.13514e-06
2.24762e-06
1.0387e-07
2.25376e-06
2.22471e-07
2.2519e-06
-4.75024e-08
2.25381e-06
-4.8173e-09
2.25331e-06
4.9309e-08
2.25506e-06
-2.9598e-08
2.25584e-06
6.53925e-08
2.25578e-06
-4.32852e-08
2.25789e-06
6.28328e-08
2.25693e-06
-2.85518e-08
2.26015e-06
4.16108e-08
2.25766e-06
-3.26153e-08
2.26156e-06
2.33618e-08
2.25674e-06
-2.58825e-08
2.26074e-06
1.93152e-08
2.25375e-06
-4.62542e-09
2.25532e-06
3.15734e-08
2.24673e-06
4.33034e-08
2.2438e-06
8.51888e-08
1.33211e-07
2.23936e-06
2.35553e-06
1.02214e-07
2.36137e-06
2.16634e-07
2.35955e-06
-4.56829e-08
2.36146e-06
-6.72864e-09
2.36123e-06
4.95412e-08
2.3629e-06
-3.12693e-08
2.36404e-06
6.42521e-08
2.36359e-06
-4.28342e-08
2.36628e-06
6.01371e-08
2.36476e-06
-2.70259e-08
2.36865e-06
3.77226e-08
2.3655e-06
-2.94718e-08
2.36994e-06
1.89247e-08
2.36481e-06
-2.07513e-08
2.36868e-06
1.54488e-08
2.36213e-06
1.92504e-09
2.36253e-06
3.11662e-08
2.35519e-06
5.06441e-08
2.35129e-06
8.90899e-08
1.36369e-07
2.34813e-06
2.4685e-06
1.00113e-07
2.474e-06
2.1113e-07
2.47239e-06
-4.40711e-08
2.4742e-06
-8.53842e-09
2.4743e-06
4.94423e-08
2.47576e-06
-3.27304e-08
2.47736e-06
6.26484e-08
2.47641e-06
-4.18834e-08
2.47979e-06
5.6758e-08
2.47765e-06
-2.48886e-08
2.48222e-06
3.31561e-08
2.47852e-06
-2.57726e-08
2.48332e-06
1.41232e-08
2.47819e-06
-1.56162e-08
2.48158e-06
1.20515e-08
2.47573e-06
7.77588e-09
2.47486e-06
3.20364e-08
2.46869e-06
5.68147e-08
2.46416e-06
9.36209e-08
1.38723e-07
2.46181e-06
2.5868e-06
9.76055e-08
2.59191e-06
2.06018e-07
2.59067e-06
-4.28236e-08
2.59227e-06
-1.01395e-08
2.59279e-06
4.89233e-08
2.59391e-06
-3.38555e-08
2.59609e-06
6.04752e-08
2.59454e-06
-4.03372e-08
2.59867e-06
5.26275e-08
2.59592e-06
-2.21349e-08
2.6011e-06
2.7968e-08
2.59703e-06
-2.16976e-08
2.60195e-06
9.20364e-09
2.59714e-06
-1.08094e-08
2.59978e-06
9.41823e-09
2.59478e-06
1.27703e-08
2.5927e-06
3.41221e-08
2.58745e-06
6.20614e-08
2.58269e-06
9.83788e-08
1.40687e-07
2.58073e-06
2.71074e-06
9.46969e-08
2.71538e-06
2.01377e-07
2.71465e-06
-4.20917e-08
2.71593e-06
-1.14193e-08
2.71697e-06
4.78754e-08
2.71764e-06
-3.45225e-08
2.72048e-06
5.76316e-08
2.71827e-06
-3.81241e-08
2.72318e-06
4.77207e-08
2.71987e-06
-1.88238e-08
2.72553e-06
2.23012e-08
2.72135e-06
-1.75099e-08
2.72609e-06
4.45909e-09
2.72192e-06
-6.63954e-09
2.72358e-06
7.75843e-09
2.71947e-06
1.68841e-08
2.71637e-06
3.72159e-08
2.71173e-06
6.67042e-08
2.70711e-06
1.03e-07
1.42554e-07
2.70524e-06
2.84059e-06
9.13766e-08
2.84466e-06
1.97302e-07
2.8446e-06
-4.20248e-08
2.84544e-06
-1.22615e-08
2.84713e-06
4.61809e-08
2.84723e-06
-3.46216e-08
2.85083e-06
5.40368e-08
2.84792e-06
-3.52158e-08
2.85356e-06
4.20784e-08
2.84984e-06
-1.50988e-08
2.85575e-06
1.63853e-08
2.85177e-06
-1.35241e-08
2.85605e-06
1.73162e-10
2.85275e-06
-3.3351e-09
2.85336e-06
7.14432e-09
2.84999e-06
2.02523e-08
2.84618e-06
4.10279e-08
2.84186e-06
7.103e-08
2.83762e-06
1.0724e-07
1.44459e-07
2.83571e-06
2.97665e-06
8.76241e-08
2.98006e-06
1.93893e-07
2.9808e-06
-4.27717e-08
2.9811e-06
-1.25528e-08
2.98355e-06
4.37282e-08
2.983e-06
-3.40701e-08
2.98738e-06
4.96526e-08
2.98382e-06
-3.16515e-08
2.99007e-06
3.58288e-08
2.98616e-06
-1.11965e-08
2.99203e-06
1.05181e-08
2.98857e-06
-1.00682e-08
2.99217e-06
-3.42682e-09
2.98984e-06
-9.99621e-10
2.9895e-06
7.4802e-09
2.98661e-06
2.31461e-08
2.98237e-06
4.52627e-08
2.97816e-06
7.52447e-08
2.97441e-06
1.10991e-07
1.464e-07
2.97247e-06
3.11922e-06
8.34153e-08
3.12185e-06
1.91259e-07
3.12356e-06
-4.44785e-08
3.1232e-06
-1.21927e-08
3.1265e-06
4.04289e-08
3.12526e-06
-3.28326e-08
3.1304e-06
4.45064e-08
3.12631e-06
-2.75585e-08
3.13294e-06
2.9196e-08
3.12918e-06
-7.4334e-09
3.13467e-06
5.03106e-09
3.13204e-06
-7.43809e-09
3.13482e-06
-6.20712e-09
3.13342e-06
3.95875e-10
3.13238e-06
8.52155e-09
3.12964e-06
2.58896e-08
3.12519e-06
4.97072e-08
3.1209e-06
7.95374e-08
3.1177e-06
1.14188e-07
1.48303e-07
3.1158e-06
3.2686e-06
7.87271e-08
3.27035e-06
1.89504e-07
3.27315e-06
-4.72805e-08
3.27207e-06
-1.11079e-08
3.27626e-06
3.62379e-08
3.27437e-06
-3.09419e-08
3.28016e-06
3.87144e-08
3.27577e-06
-2.3169e-08
3.28246e-06
2.25041e-08
3.27923e-06
-4.19455e-09
3.28399e-06
2.64985e-10
3.28242e-06
-5.86724e-09
3.28435e-06
-8.13433e-09
3.2838e-06
9.46425e-10
3.28238e-06
9.93919e-09
3.27955e-06
2.87151e-08
3.27489e-06
5.43699e-08
3.27012e-06
8.43079e-08
3.26785e-06
1.16464e-07
1.50279e-07
3.26587e-06
3.42512e-06
7.35411e-08
3.4259e-06
1.88726e-07
3.4299e-06
-5.12887e-08
3.42807e-06
-9.2721e-09
3.43313e-06
3.11777e-08
3.43071e-06
-2.8525e-08
3.43692e-06
3.25067e-08
3.43259e-06
-1.88366e-08
3.43892e-06
1.61721e-08
3.43663e-06
-1.90337e-09
3.44037e-06
-3.47338e-09
3.43999e-06
-5.49493e-09
3.4411e-06
-9.24132e-09
3.44132e-06
7.27776e-10
3.43994e-06
1.13164e-08
3.43743e-06
3.12311e-08
3.432e-06
5.97956e-08
3.42548e-06
9.08325e-08
3.42416e-06
1.17778e-07
1.52045e-07
3.4224e-06
3.58911e-06
6.7846e-08
3.58883e-06
1.89001e-07
3.59412e-06
-5.65738e-08
3.59157e-06
-6.72655e-09
3.59739e-06
2.53579e-08
3.59468e-06
-2.58157e-08
3.60097e-06
2.62148e-08
3.59711e-06
-1.49725e-08
3.60269e-06
1.05932e-08
3.60163e-06
-8.47308e-10
3.60426e-06
-6.09754e-09
3.60497e-06
-6.20608e-09
3.6055e-06
-9.77476e-09
3.60631e-06
-8.17692e-11
3.60557e-06
1.20519e-08
3.60597e-06
3.08398e-08
3.60611e-06
5.96555e-08
3.60002e-06
9.69222e-08
3.58257e-06
1.35222e-07
1.49679e-07
3.58494e-06
3.76091e-06
6.16413e-08
3.75953e-06
1.90379e-07
3.76611e-06
-6.31474e-08
3.76297e-06
-3.59519e-09
3.76935e-06
1.89834e-08
3.76668e-06
-2.31485e-08
3.77266e-06
2.02331e-08
3.76966e-06
-1.19655e-08
3.77423e-06
6.02035e-09
3.77439e-06
-1.0045e-09
3.77623e-06
-7.93755e-09
3.7775e-06
-7.48327e-09
3.77814e-06
-1.04137e-08
3.77926e-06
-1.20007e-09
3.78004e-06
1.12731e-08
3.78388e-06
2.69984e-08
3.7887e-06
5.48358e-08
3.79607e-06
8.95535e-08
3.80806e-06
1.23228e-07
1.73096e-07
3.78465e-06
3.94089e-06
5.49411e-08
3.93841e-06
1.9286e-07
3.94619e-06
-7.09273e-08
3.94272e-06
-1.23691e-10
3.94931e-06
1.2389e-08
3.94715e-06
-2.09911e-08
3.95235e-06
1.5038e-08
3.95057e-06
-1.01887e-08
3.95401e-06
2.57685e-09
3.95516e-06
-2.15287e-09
3.95666e-06
-9.43533e-09
3.95806e-06
-8.88325e-09
3.9593e-06
-1.16532e-08
3.9614e-06
-3.30082e-09
3.9609e-06
1.17767e-08
3.952e-06
3.58964e-08
3.94278e-06
6.40529e-08
3.93591e-06
9.64272e-08
3.92637e-06
1.32769e-07
1.66703e-07
3.93276e-06
4.12941e-06
4.77766e-08
4.12589e-06
1.96385e-07
4.13468e-06
-7.97152e-08
4.13125e-06
3.30735e-09
4.13761e-06
6.02647e-09
4.1365e-06
-1.98831e-08
4.14049e-06
1.1054e-08
4.14013e-06
-9.83316e-09
4.14255e-06
1.55409e-10
4.1443e-06
-3.90668e-09
4.14584e-06
-1.0971e-08
4.14717e-06
-1.0215e-08
4.14689e-06
-1.13742e-08
4.14297e-06
6.23618e-10
4.13491e-06
1.98404e-08
4.13032e-06
4.04805e-08
4.12545e-06
6.89258e-08
4.12018e-06
1.01699e-07
4.11659e-06
1.3636e-07
1.63522e-07
4.11977e-06
4.32688e-06
4.01999e-08
4.32245e-06
2.00817e-07
4.3319e-06
-8.91707e-08
4.32902e-06
6.18925e-09
4.33465e-06
3.91913e-10
4.33508e-06
-2.03062e-08
4.33764e-06
8.49381e-09
4.33856e-06
-1.07573e-08
4.34039e-06
-1.67384e-09
4.34214e-06
-5.65094e-09
4.34345e-06
-1.22896e-08
4.34156e-06
-8.32522e-09
4.33672e-06
-6.52623e-09
4.33236e-06
4.97773e-09
4.32736e-06
2.48444e-08
4.32211e-06
4.57336e-08
4.31798e-06
7.3056e-08
4.31454e-06
1.0513e-07
4.31371e-06
1.37199e-07
1.61253e-07
4.31597e-06
4.53369e-06
3.22857e-08
4.52858e-06
2.05928e-07
4.53819e-06
-9.87841e-08
4.5365e-06
7.88195e-09
4.54089e-06
-4.00267e-09
4.54322e-06
-2.26351e-08
4.54441e-06
7.30792e-09
4.54615e-06
-1.25021e-08
4.54795e-06
-3.47495e-09
4.54826e-06
-5.95661e-09
4.54725e-06
-1.12788e-08
4.54286e-06
-3.93535e-09
4.53793e-06
-1.60139e-09
4.53371e-06
9.20296e-09
4.52938e-06
2.91689e-08
4.52418e-06
5.09404e-08
4.52034e-06
7.68951e-08
4.51815e-06
1.07313e-07
4.51917e-06
1.36181e-07
1.59766e-07
4.52066e-06
4.75027e-06
2.41332e-08
4.7448e-06
2.11394e-07
4.75391e-06
-1.07892e-07
4.75411e-06
7.68034e-09
4.75685e-06
-6.74522e-09
4.76123e-06
-2.70085e-08
4.76141e-06
7.12811e-09
4.76323e-06
-1.43278e-08
4.76504e-06
-5.27756e-09
4.76194e-06
-2.86461e-09
4.75895e-06
-8.28937e-09
4.75478e-06
2.43634e-10
4.7495e-06
3.67582e-09
4.74532e-06
1.3379e-08
4.74141e-06
3.3082e-08
4.73654e-06
5.58047e-08
4.73285e-06
8.05946e-08
4.73166e-06
1.08495e-07
4.73307e-06
1.34774e-07
1.58148e-07
4.73469e-06
4.97707e-06
1.58619e-08
4.97166e-06
2.16808e-07
4.97948e-06
-1.15714e-07
4.98226e-06
4.89477e-09
4.98314e-06
-7.62416e-09
4.9894e-06
-3.32659e-08
4.98919e-06
7.33679e-09
4.98987e-06
-1.50125e-08
4.99049e-06
-5.89276e-09
4.98471e-06
2.91502e-09
4.98088e-06
-4.46166e-09
4.97713e-06
3.99443e-09
4.97182e-06
8.98955e-09
4.96744e-06
1.77605e-08
4.96383e-06
3.66932e-08
4.9595e-06
6.01265e-08
4.95601e-06
8.4087e-08
4.95551e-06
1.08994e-07
4.95663e-06
1.3365e-07
1.55869e-07
4.95891e-06
5.21457e-06
7.60988e-09
5.20969e-06
2.21689e-07
5.21539e-06
-1.21415e-07
5.22129e-06
-1.003e-09
5.22043e-06
-6.77185e-09
5.2281e-06
-4.09378e-08
5.22801e-06
7.43498e-09
5.22603e-06
-1.30401e-08
5.2245e-06
-4.35941e-09
5.21816e-06
9.25342e-09
5.21363e-06
7.11072e-11
5.21045e-06
7.17687e-09
5.20527e-06
1.41623e-08
5.20054e-06
2.24989e-08
5.19708e-06
4.01454e-08
5.1934e-06
6.38078e-08
5.1904e-06
8.7085e-08
5.19003e-06
1.09365e-07
5.19117e-06
1.32514e-07
1.53075e-07
5.19397e-06
5.46328e-06
-4.78253e-10
5.45944e-06
2.25527e-07
5.4623e-06
-1.24281e-07
5.47141e-06
-1.01078e-08
5.46938e-06
-4.74572e-09
5.47763e-06
-4.91793e-08
5.47765e-06
7.41052e-09
5.47145e-06
-6.8425e-09
5.46907e-06
-1.97762e-09
5.46308e-06
1.52469e-08
5.45788e-06
5.26333e-09
5.4551e-06
9.95835e-09
5.45026e-06
1.90019e-08
5.4452e-06
2.75588e-08
5.44173e-06
4.36191e-08
5.43867e-06
6.68693e-08
5.43642e-06
8.93351e-08
5.4359e-06
1.09883e-07
5.43722e-06
1.31199e-07
1.49893e-07
5.4404e-06
5.72374e-06
-8.25916e-09
5.72147e-06
2.27796e-07
5.72105e-06
-1.23856e-07
5.73281e-06
-2.18771e-08
5.73027e-06
-2.20454e-09
5.7372e-06
-5.61033e-08
5.73549e-06
9.11887e-09
5.72755e-06
1.0998e-09
5.72522e-06
3.4668e-10
5.72015e-06
2.03176e-08
5.71424e-06
1.11769e-08
5.71156e-06
1.26349e-08
5.70724e-06
2.33277e-08
5.70201e-06
3.27896e-08
5.69837e-06
4.7258e-08
5.69582e-06
6.9413e-08
5.69439e-06
9.07673e-08
5.69382e-06
1.10449e-07
5.69529e-06
1.29737e-07
1.46427e-07
5.69875e-06
5.99654e-06
-1.56026e-08
5.99635e-06
2.27983e-07
5.99247e-06
-1.19979e-07
6.00567e-06
-3.50767e-08
6.00231e-06
1.15776e-09
6.00559e-06
-5.93861e-08
6.00419e-06
1.05198e-08
5.99601e-06
9.28412e-09
5.99391e-06
2.44712e-09
5.98979e-06
2.44345e-08
5.98331e-06
1.76612e-08
5.98036e-06
1.55856e-08
5.97667e-06
2.70097e-08
5.9715e-06
3.79674e-08
5.96762e-06
5.11314e-08
5.96548e-06
7.15512e-08
5.96476e-06
9.14898e-08
5.96442e-06
1.10792e-07
5.96599e-06
1.28164e-07
1.42795e-07
5.96962e-06
6.28229e-06
-2.24005e-08
6.2846e-06
2.25672e-07
6.27748e-06
-1.12863e-07
6.29025e-06
-4.78471e-08
6.28576e-06
5.64463e-09
6.28663e-06
-6.02489e-08
6.28645e-06
1.06926e-08
6.27795e-06
1.77908e-08
6.27561e-06
4.78268e-09
6.2725e-06
2.75467e-08
6.26568e-06
2.44763e-08
6.26211e-06
1.91573e-08
6.25908e-06
3.0046e-08
6.25423e-06
4.28135e-08
6.25013e-06
5.52303e-08
6.2483e-06
7.33827e-08
6.24808e-06
9.17151e-08
6.24822e-06
1.10647e-07
6.24994e-06
1.26442e-07
1.39089e-07
6.25365e-06
6.58163e-06
-2.85653e-08
6.5867e-06
2.20607e-07
6.5768e-06
-1.02964e-07
6.58773e-06
-5.87748e-08
6.58317e-06
1.02019e-08
6.58195e-06
-5.90281e-08
6.58268e-06
9.96219e-09
6.57394e-06
2.65322e-08
6.57094e-06
7.7803e-09
6.5688e-06
2.96859e-08
6.56197e-06
3.13041e-08
6.55756e-06
2.35735e-08
6.55501e-06
3.2599e-08
6.55077e-06
4.70482e-08
6.54656e-06
5.94377e-08
6.54491e-06
7.50341e-08
6.545e-06
9.163e-08
6.54576e-06
1.09879e-07
6.54774e-06
1.24469e-07
1.35344e-07
6.55148e-06
6.89526e-06
-3.40336e-08
6.90309e-06
2.12775e-07
6.89113e-06
-9.10063e-08
6.89986e-06
-6.75012e-08
6.89533e-06
1.47326e-08
6.89186e-06
-5.5562e-08
6.89323e-06
8.59394e-09
6.88459e-06
3.51755e-08
6.88056e-06
1.18025e-08
6.87928e-06
3.09681e-08
6.87278e-06
3.7805e-08
6.86746e-06
2.88977e-08
6.8651e-06
3.49576e-08
6.86167e-06
5.04805e-08
6.85759e-06
6.35136e-08
6.856e-06
7.66277e-08
6.85625e-06
9.13807e-08
6.85764e-06
1.08487e-07
6.85999e-06
1.22122e-07
1.31535e-07
6.8638e-06
7.22387e-06
-3.87628e-08
7.23421e-06
2.02426e-07
7.22125e-06
-7.80394e-08
7.22768e-06
-7.39283e-08
7.22292e-06
1.9492e-08
7.21699e-06
-4.96377e-08
7.21865e-06
6.93592e-09
7.21051e-06
4.33179e-08
7.20523e-06
1.70749e-08
7.20455e-06
3.16477e-08
7.19874e-06
4.36189e-08
7.19259e-06
3.50444e-08
7.19008e-06
3.74702e-08
7.18749e-06
5.3073e-08
7.18388e-06
6.71265e-08
7.18228e-06
7.8228e-08
7.18257e-06
9.10889e-08
7.1845e-06
1.06559e-07
7.18731e-06
1.19306e-07
1.27589e-07
7.19126e-06
7.56819e-06
-4.27308e-08
7.58071e-06
1.89908e-07
7.56777e-06
-6.50964e-08
7.57204e-06
-7.81956e-08
7.56667e-06
2.48558e-08
7.55808e-06
-4.10475e-08
7.55959e-06
5.42424e-09
7.55233e-06
5.05808e-08
7.54577e-06
2.36332e-08
7.5453e-06
3.21247e-08
7.54048e-06
4.84359e-08
7.53376e-06
4.17587e-08
7.53076e-06
4.04732e-08
7.52888e-06
5.49505e-08
7.52608e-06
6.99315e-08
7.52448e-06
7.98259e-08
7.52475e-06
9.08242e-08
7.52706e-06
1.04246e-07
7.53037e-06
1.1599e-07
1.23415e-07
7.53455e-06
7.92901e-06
-4.59263e-08
7.9432e-06
1.7572e-07
7.93127e-06
-5.31666e-08
7.93386e-06
-8.07865e-08
7.92728e-06
3.14308e-08
7.9159e-06
-2.96666e-08
7.91681e-06
4.50968e-09
7.91074e-06
5.66545e-08
7.90301e-06
3.13655e-08
7.90228e-06
3.28553e-08
7.89862e-06
5.20985e-08
7.89174e-06
4.86363e-08
7.88801e-06
4.42044e-08
7.88659e-06
5.6363e-08
7.88483e-06
7.16952e-08
7.88335e-06
8.13093e-08
7.88359e-06
9.05803e-08
7.88612e-06
1.0172e-07
7.88989e-06
1.1222e-07
1.18934e-07
7.89437e-06
8.30708e-06
-4.83267e-08
8.3224e-06
1.60402e-07
8.31269e-06
-4.34591e-08
8.31356e-06
-8.16533e-08
8.30533e-06
3.96578e-08
8.29127e-06
-1.56057e-08
8.29115e-06
4.63014e-09
8.28646e-06
6.13459e-08
8.2778e-06
4.00231e-08
8.27635e-06
3.4307e-08
8.27383e-06
5.46182e-08
8.26724e-06
5.52243e-08
8.26273e-06
4.87107e-08
8.26147e-06
5.76269e-08
8.26076e-06
7.24022e-08
8.25964e-06
8.24337e-08
8.25992e-06
9.02979e-08
8.26252e-06
9.91194e-08
8.26664e-06
1.08101e-07
1.14107e-07
8.27147e-06
8.70322e-06
-4.98882e-08
8.71992e-06
1.43706e-07
8.71128e-06
-3.48165e-08
8.71056e-06
-8.09381e-08
8.70123e-06
4.8986e-08
8.68501e-06
6.19238e-10
8.68354e-06
6.0952e-09
8.68023e-06
6.4658e-08
8.67101e-06
4.9245e-08
8.66842e-06
3.68921e-08
8.66687e-06
5.61765e-08
8.66098e-06
6.11056e-08
8.65587e-06
5.38293e-08
8.65445e-06
5.90416e-08
8.65461e-06
7.22428e-08
8.65411e-06
8.29347e-08
8.65456e-06
8.9851e-08
8.65715e-06
9.65215e-08
8.66149e-06
1.03765e-07
1.08956e-07
8.66664e-06
9.11827e-06
-5.05372e-08
9.13686e-06
1.25119e-07
9.1277e-06
-2.56583e-08
9.1235e-06
-7.67423e-08
9.11539e-06
5.71016e-08
9.09802e-06
1.79815e-08
9.09494e-06
9.18314e-09
9.09286e-06
6.67294e-08
9.0835e-06
5.86095e-08
9.07949e-06
4.09009e-08
9.07855e-06
5.71195e-08
9.0737e-06
6.59521e-08
9.06829e-06
5.92358e-08
9.06653e-06
6.08062e-08
9.06722e-06
7.15515e-08
9.06752e-06
8.26333e-08
9.06832e-06
8.90582e-08
9.07091e-06
9.39234e-08
9.07535e-06
9.93273e-08
1.03549e-07
9.08076e-06
9.5531e-06
-5.01738e-08
9.56968e-06
1.08537e-07
9.55695e-06
-1.29302e-08
9.55324e-06
-7.30307e-08
9.54859e-06
6.17512e-08
9.53127e-06
3.53028e-08
9.52629e-06
1.41587e-08
9.52518e-06
6.78423e-08
9.51613e-06
6.76554e-08
9.51059e-06
4.64411e-08
9.5098e-06
5.79163e-08
9.50616e-06
6.95853e-08
9.50089e-06
6.4512e-08
9.49871e-06
6.29877e-08
9.49957e-06
7.06893e-08
9.50069e-06
8.15066e-08
9.50202e-06
8.77335e-08
9.5047e-06
9.12464e-08
9.50916e-06
9.48643e-08
9.79733e-08
9.51474e-06
1.00087e-05
-4.87275e-08
1.00198e-05
9.73983e-08
1.00071e-05
-1.93153e-10
1.00033e-05
-6.92779e-08
1.00021e-05
6.30245e-08
9.98559e-06
5.1782e-08
9.97859e-06
2.1154e-08
9.97805e-06
6.83788e-08
9.96975e-06
7.59583e-08
9.9628e-06
5.33944e-08
9.96163e-06
5.90852e-08
9.95919e-06
7.20249e-08
9.95447e-06
6.92292e-08
9.95195e-06
6.55087e-08
9.9527e-06
6.99375e-08
9.95452e-06
7.96844e-08
9.95651e-06
8.57446e-08
9.95941e-06
8.83545e-08
9.96388e-06
9.03927e-08
9.23058e-08
9.96954e-06
1.04861e-05
-4.62351e-08
1.0493e-05
9.05609e-08
1.04827e-05
1.00488e-08
1.04765e-05
-6.30592e-08
1.0477e-05
6.25833e-08
1.04618e-05
6.69776e-08
1.04528e-05
3.00988e-08
1.04524e-05
6.87792e-08
1.04452e-05
8.31699e-08
1.04372e-05
6.14534e-08
1.04352e-05
6.10855e-08
1.04337e-05
7.34968e-08
1.04299e-05
7.30485e-08
1.04272e-05
6.81527e-08
1.04277e-05
6.94626e-08
1.043e-05
7.73814e-08
1.04327e-05
8.30594e-08
1.04359e-05
8.51012e-08
1.04405e-05
8.58667e-08
8.66026e-08
1.04462e-05
1.09867e-05
-4.28821e-08
1.10031e-05
7.40942e-08
1.09843e-05
2.88937e-08
1.09733e-05
-5.20767e-08
1.09745e-05
6.13601e-08
1.09608e-05
8.06992e-08
1.095e-05
4.08618e-08
1.09493e-05
6.95619e-08
1.09434e-05
8.90715e-08
1.09347e-05
7.01614e-08
1.09315e-05
6.422e-08
1.09306e-05
7.43732e-08
1.09279e-05
7.57848e-08
1.09255e-05
7.05798e-08
1.09256e-05
6.93202e-08
1.09282e-05
7.47942e-08
1.09315e-05
7.97459e-08
1.09352e-05
8.13765e-08
1.09399e-05
8.11951e-08
8.08749e-08
1.09456e-05
1.15111e-05
-3.86089e-08
1.15182e-05
6.70208e-08
1.15066e-05
4.04954e-08
1.14949e-05
-4.0375e-08
1.14961e-05
6.01249e-08
1.14838e-05
9.29636e-08
1.14714e-05
5.32616e-08
1.14698e-05
7.12403e-08
1.14652e-05
9.36263e-08
1.14564e-05
7.89809e-08
1.1452e-05
6.85946e-08
1.14512e-05
7.51344e-08
1.14496e-05
7.74696e-08
1.14477e-05
7.24453e-08
1.14476e-05
6.94567e-08
1.14503e-05
7.20711e-08
1.14541e-05
7.59515e-08
1.14583e-05
7.7139e-08
1.14632e-05
7.62783e-08
7.5078e-08
1.1469e-05
1.20608e-05
-3.3563e-08
1.20663e-05
6.1459e-08
1.20543e-05
5.24929e-08
1.20418e-05
-2.77997e-08
1.20427e-05
5.91908e-08
1.20319e-05
1.03744e-07
1.20181e-05
6.70581e-08
1.2015e-05
7.43284e-08
1.20116e-05
9.70229e-08
1.20033e-05
8.7353e-08
1.19977e-05
7.41113e-08
1.19967e-05
7.62116e-08
1.19959e-05
7.82774e-08
1.19947e-05
7.35625e-08
1.19946e-05
6.95553e-08
1.19974e-05
6.93381e-08
1.20015e-05
7.18222e-08
1.20062e-05
7.24132e-08
1.20115e-05
7.1034e-08
6.91324e-08
1.20174e-05
1.26369e-05
-2.78437e-08
1.26408e-05
5.74822e-08
1.26301e-05
6.32284e-08
1.26155e-05
-1.31379e-08
1.26153e-05
5.93427e-08
1.26061e-05
1.1292e-07
1.25913e-05
8.18809e-08
1.25864e-05
7.92154e-08
1.25838e-05
9.96628e-08
1.25763e-05
9.47965e-08
1.25699e-05
8.04957e-08
1.25682e-05
7.79417e-08
1.2568e-05
7.85219e-08
1.25676e-05
7.39573e-08
1.2568e-05
6.91608e-08
1.25706e-05
6.67125e-08
1.2575e-05
6.74235e-08
1.25801e-05
6.73146e-08
1.25857e-05
6.54108e-08
6.29467e-08
1.25919e-05
1.32407e-05
-2.15991e-08
1.32472e-05
5.09542e-08
1.3235e-05
7.54091e-08
1.32171e-05
4.78223e-09
1.32152e-05
6.12522e-08
1.32076e-05
1.20503e-07
1.31922e-05
9.72655e-08
1.31853e-05
8.61733e-08
1.31828e-05
1.02157e-07
1.31765e-05
1.01041e-07
1.31697e-05
8.73092e-08
1.31672e-05
8.05114e-08
1.31671e-05
7.85962e-08
1.31674e-05
7.36825e-08
1.31685e-05
6.8012e-08
1.31711e-05
6.41457e-08
1.31758e-05
6.26708e-08
1.31811e-05
6.20711e-08
1.31871e-05
5.93437e-08
5.64372e-08
1.31936e-05
1.38735e-05
-1.49328e-08
1.38792e-05
4.52538e-08
1.38678e-05
8.68349e-08
1.3848e-05
2.45327e-08
1.38439e-05
6.53536e-08
1.38376e-05
1.26819e-07
1.38222e-05
1.12691e-07
1.38131e-05
9.52904e-08
1.38101e-05
1.05163e-07
1.3805e-05
1.06123e-07
1.37983e-05
9.40025e-08
1.37948e-05
8.39428e-08
1.37946e-05
7.88678e-08
1.37954e-05
7.28412e-08
1.37973e-05
6.61676e-08
1.38e-05
6.13611e-08
1.38052e-05
5.74925e-08
1.38104e-05
5.68528e-08
1.3817e-05
5.2769e-08
4.95542e-08
1.38239e-05
1.45367e-05
-8.00491e-09
1.45369e-05
4.50687e-08
1.45294e-05
9.433e-08
1.45094e-05
4.45759e-08
1.45029e-05
7.18363e-08
1.44974e-05
1.32367e-07
1.44824e-05
1.27632e-07
1.44712e-05
1.06471e-07
1.44671e-05
1.09276e-07
1.44628e-05
1.10421e-07
1.44567e-05
1.00113e-07
1.44526e-05
8.80781e-08
1.44518e-05
7.95931e-08
1.4453e-05
7.16796e-08
1.44554e-05
6.38268e-08
1.44588e-05
5.79108e-08
1.4464e-05
5.22837e-08
1.44698e-05
5.10337e-08
1.44766e-05
4.60371e-08
4.21543e-08
1.4484e-05
1.52319e-05
-1.02599e-09
1.52322e-05
4.48204e-08
1.52234e-05
1.03086e-07
1.52025e-05
6.54935e-08
1.51936e-05
8.07415e-08
1.51882e-05
1.377e-07
1.51741e-05
1.41735e-07
1.51612e-05
1.194e-07
1.51555e-05
1.14986e-07
1.51514e-05
1.14494e-07
1.51461e-05
1.05466e-07
1.51416e-05
9.25442e-08
1.51403e-05
8.09203e-08
1.51414e-05
7.05332e-08
1.51442e-05
6.10796e-08
1.51484e-05
5.3674e-08
1.51535e-05
4.72336e-08
1.51605e-05
4.40358e-08
1.51671e-05
3.9416e-08
3.41314e-08
1.51751e-05
1.59604e-05
5.90064e-09
1.59593e-05
4.59e-08
1.59498e-05
1.12579e-07
1.5929e-05
8.62852e-08
1.59175e-05
9.23176e-08
1.59118e-05
1.43378e-07
1.58986e-05
1.54892e-07
1.58844e-05
1.33578e-07
1.58768e-05
1.2263e-07
1.58724e-05
1.18933e-07
1.58676e-05
1.10252e-07
1.58632e-05
9.69171e-08
1.58612e-05
8.29071e-08
1.58621e-05
6.96527e-08
1.58651e-05
5.8075e-08
1.58699e-05
4.88956e-08
1.58754e-05
4.17612e-08
1.58828e-05
3.65508e-08
1.58905e-05
3.17273e-08
2.63209e-08
1.58983e-05
1.67238e-05
1.27325e-08
1.67146e-05
5.5086e-08
1.67106e-05
1.16534e-07
1.66907e-05
1.06203e-07
1.66763e-05
1.06733e-07
1.66696e-05
1.50047e-07
1.66573e-05
1.67199e-07
1.66424e-05
1.48549e-07
1.66327e-05
1.32322e-07
1.66273e-05
1.24318e-07
1.66226e-05
1.14902e-07
1.66186e-05
1.00983e-07
1.6616e-05
8.54619e-08
1.66165e-05
6.91892e-08
1.66195e-05
5.50607e-08
1.66245e-05
4.38606e-08
1.66309e-05
3.54065e-08
1.66387e-05
2.86949e-08
1.66475e-05
2.29881e-08
1.81628e-08
1.66556e-05
1.75239e-05
1.91759e-08
1.75223e-05
5.66593e-08
1.75099e-05
1.28991e-07
1.74889e-05
1.27213e-07
1.74718e-05
1.23834e-07
1.74634e-05
1.58381e-07
1.74517e-05
1.78915e-07
1.74363e-05
1.63967e-07
1.74246e-05
1.43988e-07
1.74178e-05
1.31162e-07
1.74128e-05
1.1988e-07
1.74089e-05
1.04929e-07
1.74059e-05
8.84098e-08
1.74059e-05
6.92501e-08
1.74087e-05
5.22706e-08
1.74139e-05
3.85934e-08
1.7421e-05
2.82857e-08
1.74295e-05
2.01941e-08
1.74389e-05
1.36588e-08
8.50897e-09
1.74485e-05
1.83622e-05
2.53457e-08
1.83506e-05
6.81969e-08
1.83457e-05
1.33949e-07
1.83255e-05
1.4744e-07
1.83058e-05
1.43534e-07
1.82951e-05
1.69008e-07
1.82836e-05
1.90483e-07
1.82679e-05
1.79616e-07
1.82544e-05
1.5749e-07
1.82457e-05
1.3988e-07
1.82399e-05
1.25709e-07
1.82356e-05
1.09232e-07
1.82323e-05
9.16798e-08
1.82316e-05
6.99033e-08
1.82341e-05
4.98432e-08
1.82394e-05
3.32365e-08
1.82472e-05
2.0538e-08
1.82566e-05
1.08014e-08
1.82669e-05
3.29983e-09
-2.37343e-09
1.82778e-05
1.92406e-05
3.11582e-08
1.92309e-05
7.78507e-08
1.92216e-05
1.4331e-07
1.92018e-05
1.67238e-07
1.918e-05
1.65304e-07
1.91666e-05
1.82374e-07
1.91546e-05
2.02551e-07
1.91387e-05
1.95429e-07
1.91236e-05
1.72687e-07
1.91127e-05
1.50742e-07