/*--------------------------------*- C++ -*----------------------------------*\
| =========                 |                                                 |
| \\      /  F ield         | OpenFOAM: The Open Source CFD Toolbox           |
|  \\    /   O peration     | Version:  v2012                                 |
|   \\  /    A nd           | Website:  www.openfoam.com                      |
|    \\/     M anipulation  |                                                 |
\*---------------------------------------------------------------------------*/
FoamFile
{
    version     2.0;
    format      ascii;
    class       volVectorField;
    location    "3.5";
    object      U;
}
// * * * * * * * * * * * * * * * * * * * * * * * * * * * * * * * * * * * * * //

dimensions      [0 1 -1 0 0 0 0];


internalField   nonuniform List<vector> 
17600
(
(0.827217 0.000755682 0)
(1.17878 0.00370901 0)
(0.836757 -0.00113854 0)
(1.15493 -0.000639481 0)
(0.834383 -7.17974e-06 0)
(1.141 -0.000370922 0)
(0.841505 0.000725092 0)
(1.12687 -0.000644889 0)
(0.849402 0.000978781 0)
(1.11508 -0.000384406 0)
(0.856321 0.000960357 0)
(1.1051 -0.000571147 0)
(0.861424 0.000702008 0)
(1.09842 -0.00109801 0)
(0.861968 0.000638618 0)
(1.09415 -0.00160557 0)
(0.856837 0.00103686 0)
(1.09256 -0.00209003 0)
(0.843689 0.00209094 0)
(1.09161 -0.00290925 0)
(0.836587 0.000631237 0)
(1.16664 0.00380112 0)
(0.8518 -0.00114195 0)
(1.14135 -0.000418396 0)
(0.850821 -0.000102324 0)
(1.12464 -0.000208931 0)
(0.860753 0.000646031 0)
(1.10727 -0.000494598 0)
(0.872348 0.000894879 0)
(1.09114 -0.000232387 0)
(0.884832 0.000861323 0)
(1.07512 -0.000421559 0)
(0.898206 0.000589907 0)
(1.05932 -0.000950357 0)
(0.911365 0.000579802 0)
(1.04048 -0.00155546 0)
(0.926138 0.00125224 0)
(1.0155 -0.00245372 0)
(0.944054 0.00335268 0)
(0.977781 -0.00433852 0)
(0.855515 0.000518311 0)
(1.14232 0.00387097 0)
(0.878567 -0.00110833 0)
(1.11597 -0.000237066 0)
(0.880263 -0.000128702 0)
(1.09544 -0.00010879 0)
(0.893857 0.000630093 0)
(1.07459 -0.000429995 0)
(0.909198 0.000908896 0)
(1.05488 -0.00022157 0)
(0.925542 0.000918209 0)
(1.03584 -0.000483974 0)
(0.942182 0.000724372 0)
(1.01835 -0.00107244 0)
(0.956578 0.000837331 0)
(1.00105 -0.00171893 0)
(0.967851 0.00160059 0)
(0.984975 -0.00247421 0)
(0.973528 0.00364913 0)
(0.9704 -0.00284895 0)
(0.881498 0.000476619 0)
(1.10972 0.00383725 0)
(0.911315 -0.00102966 0)
(1.08426 -0.000136289 0)
(0.91463 -5.8274e-05 0)
(1.06155 -0.000118719 0)
(0.92941 0.000723157 0)
(1.04069 -0.00049011 0)
(0.944484 0.00104601 0)
(1.0227 -0.000342996 0)
(0.958503 0.00109169 0)
(1.00797 -0.000660303 0)
(0.970539 0.000939337 0)
(0.997357 -0.00125099 0)
(0.978041 0.00109123 0)
(0.989175 -0.00185196 0)
(0.980872 0.001846 0)
(0.983187 -0.00241086 0)
(0.978722 0.00380635 0)
(0.976923 -0.0015183 0)
(0.910261 0.000503403 0)
(1.07503 0.00370799 0)
(0.943154 -0.000918061 0)
(1.05356 -8.88101e-05 0)
(0.945617 7.64062e-05 0)
(1.03217 -0.000183684 0)
(0.957913 0.000862762 0)
(1.01558 -0.000589678 0)
(0.968933 0.001202 0)
(1.00349 -0.000465681 0)
(0.977421 0.00123107 0)
(0.995785 -0.000788158 0)
(0.983669 0.00106086 0)
(0.991913 -0.00133475 0)
(0.986171 0.0012056 0)
(0.988936 -0.00187285 0)
(0.985659 0.00194739 0)
(0.985805 -0.00227561 0)
(0.982284 0.00391901 0)
(0.980295 -0.0004435 0)
(0.937326 0.000584104 0)
(1.04455 0.00352256 0)
(0.968758 -0.000804936 0)
(1.02971 -6.54219e-05 0)
(0.968532 0.000230546 0)
(1.01271 -0.000251419 0)
(0.976342 0.000982173 0)
(1.00218 -0.000664953 0)
(0.982598 0.00130719 0)
(0.996085 -0.000537026 0)
(0.986582 0.00129214 0)
(0.993349 -0.000855178 0)
(0.98964 0.00109777 0)
(0.992738 -0.00136356 0)
(0.990401 0.00124666 0)
(0.991345 -0.00184757 0)
(0.989231 0.00198413 0)
(0.988658 -0.00206615 0)
(0.985795 0.00396877 0)
(0.983409 0.000589119 0)
(0.959456 0.000696176 0)
(1.02234 0.00332338 0)
(0.986113 -0.000719127 0)
(1.01474 -4.28583e-05 0)
(0.983096 0.000367815 0)
(1.00315 -0.000295686 0)
(0.986811 0.00105704 0)
(0.997678 -0.000705558 0)
(0.989824 0.00135847 0)
(0.995375 -0.000572015 0)
(0.991564 0.00130262 0)
(0.994899 -0.000897222 0)
(0.993511 0.00109852 0)
(0.995345 -0.00137718 0)
(0.993872 0.00126128 0)
(0.994318 -0.00179465 0)
(0.992563 0.00198302 0)
(0.991726 -0.00177866 0)
(0.989082 0.0039565 0)
(0.986759 0.00161358 0)
(0.975376 0.000812361 0)
(1.00906 0.00314179 0)
(0.99616 -0.000670289 0)
(1.0072 -1.58867e-05 0)
(0.991566 0.000472437 0)
(1.00026 -0.000316913 0)
(0.992789 0.00109468 0)
(0.997781 -0.000725858 0)
(0.994305 0.0013776 0)
(0.997285 -0.000593489 0)
(0.995269 0.00129197 0)
(0.997566 -0.000931971 0)
(0.996878 0.00108692 0)
(0.998246 -0.00138207 0)
(0.997097 0.00126069 0)
(0.997278 -0.00171079 0)
(0.995687 0.00194617 0)
(0.994712 -0.00141969 0)
(0.992191 0.00389288 0)
(0.989981 0.00258641 0)
(0.985571 0.00091102 0)
(1.00272 0.00299114 0)
(1.0012 -0.000650513 0)
(1.00417 8.79014e-06 0)
(0.996429 0.000545869 0)
(1.0005 -0.000326706 0)
(0.996647 0.00111118 0)
(0.999436 -0.000738942 0)
(0.997688 0.00138133 0)
(0.999704 -0.000611281 0)
(0.998433 0.00127341 0)
(1.00017 -0.000961285 0)
(0.999847 0.00106922 0)
(1.00084 -0.00137375 0)
(0.999919 0.00124392 0)
(0.999842 -0.0015924 0)
(0.998405 0.00187755 0)
(0.997296 -0.00100703 0)
(0.994941 0.0037958 0)
(0.992823 0.00348583 0)
(0.99149 0.000982461 0)
(1.00051 0.00286997 0)
(1.00346 -0.000644831 0)
(1.00317 2.33189e-05 0)
(0.999306 0.000596124 0)
(1.00161 -0.000335411 0)
(0.99937 0.00111814 0)
(1.00115 -0.0007506 0)
(1.00032 0.0013772 0)
(1.00177 -0.000627168 0)
(1.00098 0.00125034 0)
(1.00225 -0.000982297 0)
(1.0022 0.00104456 0)
(1.00282 -0.00134632 0)
(1.00211 0.00120601 0)
(1.0018 -0.00143604 0)
(1.0005 0.00178143 0)
(0.999298 -0.000557958 0)
(0.997129 0.00369131 0)
(0.995123 0.00428847 0)
(0.994693 0.00102741 0)
(1.00016 0.00277028 0)
(1.00441 -0.000640754 0)
(1.00283 2.44064e-05 0)
(1.00101 0.000630704 0)
(1.0026 -0.000348234 0)
(1.00124 0.00112087 0)
(1.00243 -0.000762186 0)
(1.0022 0.0013678 0)
(1.00322 -0.000640538 0)
(1.00279 0.00122248 0)
(1.00368 -0.000991827 0)
(1.00382 0.00100956 0)
(1.00416 -0.00129506 0)
(1.00358 0.00114205 0)
(1.00311 -0.00124041 0)
(1.00193 0.00165525 0)
(1.00069 -7.57016e-05 0)
(0.998703 0.00361561 0)
(0.996839 0.0049775 0)
(0.996378 0.00105154 0)
(1.00039 0.0026841 0)
(1.00481 -0.000631962 0)
(1.00263 1.40261e-05 0)
(1.00196 0.00065493 0)
(1.00324 -0.000366422 0)
(1.00243 0.00112085 0)
(1.00324 -0.000773354 0)
(1.00341 0.00135361 0)
(1.00413 -0.000649869 0)
(1.00392 0.00118821 0)
(1.00454 -0.000987465 0)
(1.00479 0.000960192 0)
(1.00495 -0.00121716 0)
(1.00445 0.00105164 0)
(1.00388 -0.00101504 0)
(1.00279 0.00151351 0)
(1.00156 0.000420218 0)
(0.999754 0.00358956 0)
(0.998045 0.00553865 0)
(0.997277 0.00106085 0)
(1.00069 0.00260611 0)
(1.00499 -0.000617193 0)
(1.00247 -3.99392e-06 0)
(1.00245 0.000672294 0)
(1.00359 -0.000389254 0)
(1.0031 0.00111807 0)
(1.0037 -0.000783113 0)
(1.00411 0.00133388 0)
(1.00464 -0.000653188 0)
(1.00455 0.00114517 0)
(1.005 -0.000966711 0)
(1.00531 0.000892482 0)
(1.00536 -0.00111269 0)
(1.00489 0.000938772 0)
(1.00429 -0.00077178 0)
(1.00327 0.00138173 0)
(1.00207 0.000885958 0)
(1.00044 0.00361807 0)
(0.998884 0.00597238 0)
(0.997779 0.0010598 0)
(1.0009 0.00253332 0)
(1.00508 -0.000597706 0)
(1.00234 -2.64431e-05 0)
(1.00268 0.000685016 0)
(1.00376 -0.000415278 0)
(1.00347 0.00111232 0)
(1.00395 -0.000790324 0)
(1.0045 0.00130728 0)
(1.00492 -0.000648664 0)
(1.00488 0.00109046 0)
(1.00524 -0.000927176 0)
(1.00557 0.000804859 0)
(1.00555 -0.000985714 0)
(1.00511 0.000810623 0)
(1.00449 -0.000519094 0)
(1.00353 0.00127295 0)
(1.00237 0.00129667 0)
(1.00091 0.00370946 0)
(0.999494 0.00630093 0)
(0.998073 0.0010513 0)
(1.00104 0.00246419 0)
(1.00512 -0.00057554 0)
(1.00226 -5.11646e-05 0)
(1.00279 0.000694203 0)
(1.00384 -0.000442816 0)
(1.00366 0.00110282 0)
(1.00408 -0.000793121 0)
(1.0047 0.00127152 0)
(1.00506 -0.000633474 0)
(1.00505 0.00102049 0)
(1.00536 -0.000867422 0)
(1.00569 0.000698314 0)
(1.00564 -0.000841133 0)
(1.00521 0.00067657 0)
(1.00458 -0.000268949 0)
(1.00369 0.001202 0)
(1.00258 0.00164945 0)
(1.00126 0.00385955 0)
(0.999979 0.00655055 0)
(0.998257 0.00103707 0)
(1.0011 0.00239831 0)
(1.00513 -0.00055294 0)
(1.0022 -7.64822e-05 0)
(1.00284 0.000699769 0)
(1.00388 -0.000470024 0)
(1.00376 0.00108789 0)
(1.00415 -0.000789305 0)
(1.00481 0.00122386 0)
(1.00513 -0.000604614 0)
(1.00513 0.00093253 0)
(1.00541 -0.000788443 0)
(1.00575 0.000575936 0)
(1.00568 -0.000683515 0)
(1.00527 0.000541242 0)
(1.00463 -2.73048e-05 0)
(1.00381 0.00118464 0)
(1.00275 0.0019549 0)
(1.00157 0.00405463 0)
(1.0004 0.00674868 0)
(0.998382 0.00101806 0)
(1.00112 0.00233589 0)
(1.00513 -0.000532017 0)
(1.00217 -0.000100338 0)
(1.00286 0.000701084 0)
(1.00389 -0.000494981 0)
(1.00381 0.00106557 0)
(1.00418 -0.000776548 0)
(1.00488 0.00116202 0)
(1.00516 -0.000560955 0)
(1.00518 0.000827638 0)
(1.00542 -0.00069501 0)
(1.00578 0.000445418 0)
(1.00569 -0.000524673 0)
(1.00531 0.000419277 0)
(1.00467 0.000193491 0)
(1.00392 0.00121988 0)
(1.00291 0.00221863 0)
(1.00185 0.00427042 0)
(1.00079 0.00691651 0)
(0.998479 0.000994904 0)
(1.00111 0.00227709 0)
(1.00512 -0.000514088 0)
(1.00215 -0.000123143 0)
(1.00287 0.000697374 0)
(1.00388 -0.000515542 0)
(1.00383 0.00103363 0)
(1.00418 -0.00075235 0)
(1.00491 0.0010856 0)
(1.00516 -0.000504584 0)
(1.0052 0.000711699 0)
(1.00542 -0.000593265 0)
(1.00581 0.000312732 0)
(1.00569 -0.00037411 0)
(1.00535 0.000331302 0)
(1.00471 0.000376925 0)
(1.00403 0.0012966 0)
(1.00308 0.00244765 0)
(1.00214 0.00448687 0)
(1.00117 0.00706827 0)
(0.998563 0.000967835 0)
(1.00107 0.00222271 0)
(1.0051 -0.000501276 0)
(1.00213 -0.000143384 0)
(1.00287 0.00068749 0)
(1.00387 -0.000529815 0)
(1.00384 0.000991283 0)
(1.00417 -0.000716523 0)
(1.00494 0.000995274 0)
(1.00515 -0.000436006 0)
(1.00522 0.000582754 0)
(1.00541 -0.000483051 0)
(1.00583 0.000180705 0)
(1.00569 -0.000242703 0)
(1.0054 0.000275655 0)
(1.00476 0.000523768 0)
(1.00415 0.00141236 0)
(1.00326 0.00265999 0)
(1.00243 0.00469481 0)
(1.00154 0.00720889 0)
(0.998643 0.000936627 0)
(1.00103 0.00217419 0)
(1.00508 -0.00049588 0)
(1.00212 -0.000157717 0)
(1.00287 0.000668849 0)
(1.00385 -0.000534852 0)
(1.00384 0.000936265 0)
(1.00416 -0.000667341 0)
(1.00495 0.00088807 0)
(1.00513 -0.000355223 0)
(1.00523 0.000443233 0)
(1.00539 -0.000373492 0)
(1.00585 5.38515e-05 0)
(1.00569 -0.000138851 0)
(1.00544 0.000247251 0)
(1.00481 0.000644055 0)
(1.00428 0.00155495 0)
(1.00346 0.00286722 0)
(1.00274 0.00488922 0)
(1.00191 0.00733724 0)
(0.99872 0.000901079 0)
(1.00099 0.00213232 0)
(1.00505 -0.000499221 0)
(1.00211 -0.000165099 0)
(1.00287 0.000638802 0)
(1.00383 -0.000529518 0)
(1.00385 0.000867645 0)
(1.00414 -0.000604227 0)
(1.00497 0.000764821 0)
(1.0051 -0.000267781 0)
(1.00523 0.000305002 0)
(1.00536 -0.000281378 0)
(1.00587 -5.59318e-05 0)
(1.0057 -6.1142e-05 0)
(1.00549 0.000247982 0)
(1.00489 0.000750149 0)
(1.00442 0.00171142 0)
(1.00367 0.00308166 0)
(1.00305 0.00507853 0)
(1.00228 0.00745971 0)
(0.998794 0.000861336 0)
(1.00094 0.00209748 0)
(1.00502 -0.000512806 0)
(1.0021 -0.000164603 0)
(1.00286 0.000597355 0)
(1.00381 -0.000514825 0)
(1.00385 0.000786148 0)
(1.00412 -0.000530813 0)
(1.00498 0.000633559 0)
(1.00508 -0.000182704 0)
(1.00524 0.000173211 0)
(1.00534 -0.000212035 0)
(1.00589 -0.000138887 0)
(1.00571 -9.04537e-06 0)
(1.00555 0.000270354 0)
(1.00497 0.000850067 0)
(1.00458 0.0018716 0)
(1.00389 0.00330716 0)
(1.00337 0.00526887 0)
(1.00266 0.0075804 0)
(0.998864 0.000817347 0)
(1.0009 0.00207155 0)
(1.00498 -0.00053931 0)
(1.0021 -0.000154301 0)
(1.00285 0.000543222 0)
(1.0038 -0.000488245 0)
(1.00384 0.000691037 0)
(1.00411 -0.00044989 0)
(1.005 0.00049859 0)
(1.00505 -0.000106701 0)
(1.00524 5.13084e-05 0)
(1.00533 -0.000167452 0)
(1.0059 -0.000197798 0)
(1.00573 2.20156e-05 0)
(1.0056 0.000297514 0)
(1.00507 0.000942126 0)
(1.00475 0.00202036 0)
(1.00413 0.00353718 0)
(1.00369 0.00545598 0)
(1.00303 0.00770175 0)
(0.998926 0.000766769 0)
(1.00086 0.00205901 0)
(1.00493 -0.000582804 0)
(1.0021 -0.000132471 0)
(1.00283 0.000473365 0)
(1.00379 -0.000449454 0)
(1.00384 0.000585101 0)
(1.00409 -0.000363629 0)
(1.005 0.00036326 0)
(1.00503 -4.593e-05 0)
(1.00524 -4.99022e-05 0)
(1.00531 -0.000147041 0)
(1.00592 -0.000243486 0)
(1.00576 3.53516e-05 0)
(1.00567 0.000325044 0)
(1.00518 0.00101938 0)
(1.00493 0.00214775 0)
(1.00438 0.00376211 0)
(1.00402 0.0056474 0)
(1.00341 0.00784889 0)
(0.998979 0.000712818 0)
(1.00084 0.00205485 0)
(1.00488 -0.000639497 0)
(1.00212 -0.000102923 0)
(1.0028 0.000396437 0)
(1.00378 -0.000410833 0)
(1.00383 0.000480851 0)
(1.00408 -0.000289732 0)
(1.005 0.000253472 0)
(1.00501 -2.62797e-05 0)
(1.00523 -0.000107962 0)
(1.00531 -0.000161581 0)
(1.00593 -0.000267851 0)
(1.0058 8.18859e-06 0)
(1.00573 0.000378789 0)
(1.0053 0.00104787 0)
(1.00513 0.00223737 0)
(1.00465 0.00387603 0)
(1.00436 0.00582604 0)
(1.00379 0.00802299 0)
(0.999022 0.000653927 0)
(1.00082 0.00206306 0)
(1.00481 -0.000712719 0)
(1.00214 -6.60439e-05 0)
(1.00276 0.000310024 0)
(1.00378 -0.000368808 0)
(1.00381 0.000376058 0)
(1.00407 -0.000228165 0)
(1.005 0.000159398 0)
(1.005 -2.35851e-05 0)
(1.00522 -0.000153961 0)
(1.00531 -0.000180279 0)
(1.00593 -0.000281037 0)
(1.00584 -3.7048e-05 0)
(1.00579 0.000404972 0)
(1.00544 0.0010574 0)
(1.00534 0.00223983 0)
(1.00495 0.00389455 0)
(1.00472 0.00585249 0)
(1.0042 0.0080286 0)
(0.999057 0.000586892 0)
(1.0008 0.00208978 0)
(1.00473 -0.000805318 0)
(1.00216 -1.77556e-05 0)
(1.00272 0.000214035 0)
(1.00378 -0.000324529 0)
(1.00378 0.000278767 0)
(1.00407 -0.000188029 0)
(1.00498 8.05361e-05 0)
(1.00499 -4.06392e-05 0)
(1.0052 -0.000187501 0)
(1.00531 -0.000208959 0)
(1.00593 -0.000288344 0)
(1.00589 -6.22646e-05 0)
(1.00586 0.000379829 0)
(1.00557 0.00109726 0)
(1.00555 0.00228335 0)
(1.00526 0.00397383 0)
(1.00509 0.00590202 0)
(1.00463 0.00807137 0)
(0.999087 0.000518476 0)
(1.00079 0.00212415 0)
(1.00464 -0.000905268 0)
(1.00219 2.9839e-05 0)
(1.00267 0.000123129 0)
(1.00379 -0.000298762 0)
(1.00375 0.000208513 0)
(1.00407 -0.000179893 0)
(1.00496 2.42075e-05 0)
(1.00499 -8.12678e-05 0)
(1.00517 -0.000219925 0)
(1.00531 -0.00023288 0)
(1.00593 -0.000298475 0)
(1.00594 -4.36233e-05 0)
(1.00593 0.000485508 0)
(1.00573 0.001251 0)
(1.00578 0.00248018 0)
(1.00558 0.00413544 0)
(1.00546 0.00606924 0)
(1.00508 0.00815318 0)
(0.999114 0.000442674 0)
(1.00077 0.00217268 0)
(1.00455 -0.00101819 0)
(1.00222 7.76974e-05 0)
(1.00261 3.44807e-05 0)
(1.00379 -0.000296502 0)
(1.00372 0.000160875 0)
(1.00407 -0.000195959 0)
(1.00494 -1.3976e-05 0)
(1.00498 -0.000106204 0)
(1.00514 -0.000261872 0)
(1.00531 -0.000210762 0)
(1.00592 -0.000271406 0)
(1.00601 6.01534e-05 0)
(1.00602 0.000703383 0)
(1.00589 0.00148946 0)
(1.00601 0.00268071 0)
(1.00591 0.00430613 0)
(1.00585 0.00621779 0)
(1.00552 0.0082327 0)
(0.999142 0.000364069 0)
(1.00075 0.00222923 0)
(1.00445 -0.0011383 0)
(1.00225 0.000112622 0)
(1.00255 -4.07457e-05 0)
(1.00379 -0.000322808 0)
(1.00368 0.000133841 0)
(1.00406 -0.000225434 0)
(1.00491 -4.19097e-05 0)
(1.00497 -0.000119125 0)
(1.00512 -0.000273856 0)
(1.00532 -0.000162544 0)
(1.00593 -0.000148132 0)
(1.00609 0.000197794 0)
(1.00612 0.0008808 0)
(1.00605 0.00170293 0)
(1.00624 0.00283449 0)
(1.00625 0.0044161 0)
(1.00624 0.00629207 0)
(1.00596 0.00824971 0)
(0.999174 0.000283408 0)
(1.00071 0.0022904 0)
(1.00435 -0.00125261 0)
(1.00228 0.000118984 0)
(1.00249 -8.68181e-05 0)
(1.0038 -0.000379308 0)
(1.00365 0.000127599 0)
(1.00405 -0.00024982 0)
(1.00489 -7.83692e-05 0)
(1.00496 -9.17221e-05 0)
(1.0051 -0.000257439 0)
(1.00533 -6.45488e-05 0)
(1.00594 2.20692e-05 0)
(1.00616 0.000321108 0)
(1.00623 0.00102652 0)
(1.00623 0.00190615 0)
(1.00648 0.0029972 0)
(1.00659 0.00450124 0)
(1.00665 0.00631933 0)
(1.0064 0.00821322 0)
(0.999212 0.000198 0)
(1.00067 0.00235855 0)
(1.00425 -0.00135985 0)
(1.0023 9.78159e-05 0)
(1.00243 -0.000102839 0)
(1.00379 -0.000466239 0)
(1.00362 0.000132802 0)
(1.00403 -0.000263574 0)
(1.00487 -0.000105003 0)
(1.00495 -4.95836e-06 0)
(1.00508 -0.000188338 0)
(1.00535 5.27928e-05 0)
(1.00596 0.000189944 0)
(1.00624 0.000447527 0)
(1.00635 0.00114283 0)
(1.0064 0.00208979 0)
(1.00671 0.00316058 0)
(1.00693 0.00457667 0)
(1.00705 0.00630262 0)
(1.00683 0.0081216 0)
(0.999256 0.000113613 0)
(1.00061 0.00242146 0)
(1.00414 -0.00144136 0)
(1.00232 3.0527e-05 0)
(1.00236 -9.42105e-05 0)
(1.00378 -0.000576717 0)
(1.00359 0.0001345 0)
(1.00401 -0.000244929 0)
(1.00486 -0.000112163 0)
(1.00494 0.000122352 0)
(1.00507 -7.12232e-05 0)
(1.00538 0.000147238 0)
(1.00597 0.000342245 0)
(1.00631 0.000583049 0)
(1.00648 0.00123705 0)
(1.00659 0.00223683 0)
(1.00695 0.00331628 0)
(1.00727 0.00465563 0)
(1.00746 0.00626243 0)
(1.00727 0.00798704 0)
(0.999305 3.05935e-05 0)
(1.00055 0.00246912 0)
(1.00403 -0.00148447 0)
(1.00233 -7.29664e-05 0)
(1.00229 -6.87824e-05 0)
(1.00377 -0.000695038 0)
(1.00358 0.000138687 0)
(1.00398 -0.000190713 0)
(1.00486 -8.06784e-05 0)
(1.00493 0.000265754 0)
(1.00505 5.82925e-05 0)
(1.0054 0.000220856 0)
(1.00599 0.000482405 0)
(1.00638 0.000739572 0)
(1.00662 0.00134029 0)
(1.00679 0.00234675 0)
(1.0072 0.00345247 0)
(1.00759 0.00473098 0)
(1.00785 0.00620869 0)
(1.00769 0.00781927 0)
(0.999357 -4.94833e-05 0)
(1.00047 0.0025003 0)
(1.00391 -0.00148845 0)
(1.00235 -0.000209512 0)
(1.00222 -3.72522e-05 0)
(1.00375 -0.000804495 0)
(1.00357 0.000139935 0)
(1.00395 -6.85069e-05 0)
(1.00487 -2.04237e-05 0)
(1.00493 0.000402945 0)
(1.00503 0.000193553 0)
(1.00542 0.000279592 0)
(1.00603 0.000609547 0)
(1.00645 0.000907937 0)
(1.00675 0.00145407 0)
(1.007 0.00241951 0)
(1.00745 0.00354898 0)
(1.00791 0.00478706 0)
(1.00823 0.00614805 0)
(1.00811 0.00763332 0)
(0.999412 -0.000125679 0)
(1.00039 0.00251388 0)
(1.00378 -0.00144499 0)
(1.00236 -0.000378404 0)
(1.00215 -1.82781e-06 0)
(1.00373 -0.000897928 0)
(1.00358 0.000148285 0)
(1.00392 9.58773e-05 0)
(1.00487 3.00613e-05 0)
(1.00493 0.000508303 0)
(1.005 0.000344866 0)
(1.00544 0.00034337 0)
(1.00607 0.000719596 0)
(1.00652 0.00107358 0)
(1.00689 0.00157223 0)
(1.00721 0.00247149 0)
(1.00771 0.00360425 0)
(1.00822 0.00482165 0)
(1.00859 0.00609098 0)
(1.00851 0.0074493 0)
(0.999467 -0.000197777 0)
(1.00031 0.00250266 0)
(1.00364 -0.00136488 0)
(1.00237 -0.000544614 0)
(1.00209 4.44537e-05 0)
(1.00371 -0.000950842 0)
(1.0036 0.000164857 0)
(1.00389 0.000251509 0)
(1.00487 6.74145e-05 0)
(1.00493 0.000581574 0)
(1.00497 0.000508256 0)
(1.00546 0.000423036 0)
(1.00613 0.000808236 0)
(1.00659 0.00123441 0)
(1.00702 0.0017051 0)
(1.00743 0.00252464 0)
(1.00799 0.00362806 0)
(1.00853 0.00483173 0)
(1.00895 0.00603402 0)
(1.0089 0.00727321 0)
(0.999523 -0.000263992 0)
(1.00023 0.00246017 0)
(1.00348 -0.00125658 0)
(1.00239 -0.000694804 0)
(1.00202 0.000106798 0)
(1.00368 -0.000948991 0)
(1.00363 0.000167202 0)
(1.00385 0.000410145 0)
(1.00487 0.000115615 0)
(1.00495 0.000633195 0)
(1.00495 0.0006764 0)
(1.00547 0.000522895 0)
(1.00619 0.000871214 0)
(1.00667 0.00137831 0)
(1.00714 0.00185333 0)
(1.00764 0.00258652 0)
(1.00827 0.00362617 0)
(1.00885 0.00480953 0)
(1.00929 0.00596447 0)
(1.00926 0.00710115 0)
(0.999577 -0.00032085 0)
(1.00015 0.00238127 0)
(1.00332 -0.00112653 0)
(1.0024 -0.000821011 0)
(1.00197 0.000173523 0)
(1.00365 -0.000910117 0)
(1.00368 0.000148639 0)
(1.00382 0.000571465 0)
(1.00486 0.000184614 0)
(1.00498 0.000664236 0)
(1.00492 0.000840319 0)
(1.00547 0.000649864 0)
(1.00626 0.000920469 0)
(1.00677 0.00149434 0)
(1.00726 0.00200855 0)
(1.00784 0.00266212 0)
(1.00855 0.00360845 0)
(1.00917 0.00475044 0)
(1.00963 0.00586828 0)
(1.00961 0.00692258 0)
(0.99963 -0.000370344 0)
(1.00007 0.00227123 0)
(1.00315 -0.000983336 0)
(1.00241 -0.000913982 0)
(1.00192 0.000239058 0)
(1.00362 -0.000837594 0)
(1.00373 0.000114923 0)
(1.0038 0.000726673 0)
(1.00484 0.000277789 0)
(1.00501 0.00067725 0)
(1.00491 0.00098836 0)
(1.00546 0.000803143 0)
(1.00634 0.000971379 0)
(1.00688 0.001577 0)
(1.00739 0.00215455 0)
(1.00802 0.00275789 0)
(1.00882 0.00359526 0)
(1.0095 0.00466525 0)
(1.00997 0.00574317 0)
(1.00995 0.00673258 0)
(0.99968 -0.000413971 0)
(1 0.00213747 0)
(1.00297 -0.000832269 0)
(1.00243 -0.000981186 0)
(1.00188 0.000315504 0)
(1.00357 -0.000723164 0)
(1.0038 8.54924e-05 0)
(1.00379 0.000867434 0)
(1.00482 0.000398127 0)
(1.00505 0.00068197 0)
(1.00491 0.00111126 0)
(1.00545 0.000977052 0)
(1.00641 0.00103867 0)
(1.00702 0.00162891 0)
(1.00753 0.00227249 0)
(1.0082 0.00286458 0)
(1.00908 0.00359704 0)
(1.00982 0.00456687 0)
(1.01031 0.00559126 0)
(1.01028 0.00652743 0)
(0.999728 -0.000447187 0)
(0.99994 0.00198513 0)
(1.00279 -0.000688648 0)
(1.00244 -0.0010235 0)
(1.00185 0.000403238 0)
(1.00353 -0.000567899 0)
(1.00388 6.23427e-05 0)
(1.00379 0.000989143 0)
(1.00478 0.000543184 0)
(1.0051 0.000686896 0)
(1.00494 0.00120496 0)
(1.00544 0.00116017 0)
(1.00647 0.00113246 0)
(1.00716 0.00165726 0)
(1.00769 0.00234865 0)
(1.00838 0.00295594 0)
(1.00932 0.00360335 0)
(1.01014 0.00445797 0)
(1.01065 0.00541123 0)
(1.0106 0.00629893 0)
(0.999774 -0.000475798 0)
(0.999888 0.00182548 0)
(1.00261 -0.00056382 0)
(1.00246 -0.00104283 0)
(1.00184 0.000509565 0)
(1.00347 -0.000369762 0)
(1.00395 5.26592e-05 0)
(1.00381 0.0010887 0)
(1.00474 0.000707137 0)
(1.00515 0.000700087 0)
(1.00498 0.00127108 0)
(1.00543 0.00134166 0)
(1.00651 0.00125501 0)
(1.00731 0.00167808 0)
(1.00787 0.00238479 0)
(1.00856 0.00301926 0)
(1.00955 0.00360896 0)
(1.01044 0.00434852 0)
(1.01099 0.00521393 0)
(1.01092 0.00604968 0)
(0.999816 -0.000497007 0)
(0.999844 0.00165569 0)
(1.00243 -0.000452755 0)
(1.00248 -0.00105025 0)
(1.00185 0.000630025 0)
(1.00341 -0.00012404 0)
(1.00403 6.90594e-05 0)
(1.00384 0.00116183 0)
(1.00469 0.000885693 0)
(1.00519 0.000733185 0)
(1.00505 0.00130839 0)
(1.00543 0.00150895 0)
(1.00655 0.00139872 0)
(1.00745 0.00170583 0)
(1.00807 0.00238754 0)
(1.00876 0.00304913 0)
(1.00976 0.00360772 0)
(1.01072 0.00424404 0)
(1.01131 0.00500926 0)
(1.01124 0.00578293 0)
(0.999854 -0.000506061 0)
(0.999809 0.00147317 0)
(1.00226 -0.000360275 0)
(1.00251 -0.00103494 0)
(1.00187 0.000752333 0)
(1.00335 0.000149599 0)
(1.0041 0.000117792 0)
(1.0039 0.00121333 0)
(1.00465 0.00107681 0)
(1.00523 0.000799897 0)
(1.00514 0.00132063 0)
(1.00545 0.00164957 0)
(1.00658 0.00155718 0)
(1.00759 0.00175181 0)
(1.00828 0.00236994 0)
(1.00896 0.00304506 0)
(1.00997 0.00359222 0)
(1.01098 0.00414429 0)
(1.01163 0.00480428 0)
(1.01156 0.00550363 0)
(0.999889 -0.000502675 0)
(0.999784 0.00129078 0)
(1.00209 -0.000261086 0)
(1.00255 -0.000999832 0)
(1.00192 0.000845674 0)
(1.00328 0.000429632 0)
(1.00416 0.000200999 0)
(1.00397 0.00125075 0)
(1.00461 0.0012735 0)
(1.00525 0.000909054 0)
(1.00524 0.00132264 0)
(1.0055 0.00175396 0)
(1.0066 0.00171987 0)
(1.00771 0.00181936 0)
(1.00848 0.00234399 0)
(1.00918 0.00300782 0)
(1.01018 0.00355299 0)
(1.01122 0.00404294 0)
(1.01191 0.0046021 0)
(1.01187 0.00521828 0)
(0.99992 -0.000489846 0)
(0.999768 0.00113556 0)
(1.00194 -9.96108e-05 0)
(1.0026 -0.000945413 0)
(1.00199 0.000876195 0)
(1.00321 0.000686059 0)
(1.00421 0.00029402 0)
(1.00407 0.00125588 0)
(1.00458 0.00144694 0)
(1.00526 0.00104946 0)
(1.00535 0.00132947 0)
(1.00557 0.00181797 0)
(1.00662 0.00187093 0)
(1.00781 0.00190646 0)
(1.00869 0.00232152 0)
(1.00941 0.00294352 0)
(1.01039 0.00348415 0)
(1.01144 0.0039315 0)
(1.01218 0.00440173 0)
(1.01216 0.00493115 0)
(0.999947 -0.000484094 0)
(0.999764 0.00102208 0)
(1.00179 4.99646e-05 0)
(1.00263 -0.000865295 0)
(1.00208 0.000881062 0)
(1.00314 0.000931745 0)
(1.00424 0.000420542 0)
(1.00417 0.00125293 0)
(1.00457 0.00160041 0)
(1.00525 0.00121679 0)
(1.00545 0.00135365 0)
(1.00567 0.00183967 0)
(1.00666 0.00198481 0)
(1.00789 0.00199314 0)
(1.00887 0.00229989 0)
(1.00964 0.00285221 0)
(1.01061 0.00337633 0)
(1.01165 0.00379479 0)
(1.01242 0.00419321 0)
(1.01242 0.00463944 0)
(0.999969 -0.000450861 0)
(0.999767 0.00089316 0)
(1.00163 0.000230606 0)
(1.00265 -0.000749142 0)
(1.00218 0.000877952 0)
(1.00309 0.00115636 0)
(1.00425 0.000582211 0)
(1.00427 0.00125519 0)
(1.00457 0.00173488 0)
(1.00522 0.0014118 0)
(1.00552 0.00141733 0)
(1.00577 0.00184986 0)
(1.0067 0.00207227 0)
(1.00795 0.00208624 0)
(1.00903 0.00229964 0)
(1.00986 0.00276175 0)
(1.01082 0.00324848 0)
(1.01185 0.0036406 0)
(1.01263 0.00398176 0)
(1.01266 0.00435216 0)
(0.999987 -0.000401018 0)
(0.999785 0.000764338 0)
(1.0015 0.000413045 0)
(1.00266 -0.000611189 0)
(1.0023 0.000861484 0)
(1.00304 0.0013539 0)
(1.00423 0.000775023 0)
(1.00438 0.00127149 0)
(1.00459 0.0018421 0)
(1.00519 0.00161746 0)
(1.00558 0.00151495 0)
(1.00588 0.00185812 0)
(1.00676 0.00212284 0)
(1.00801 0.00216288 0)
(1.00916 0.00230505 0)
(1.01006 0.00267017 0)
(1.01102 0.00309914 0)
(1.01204 0.00346 0)
(1.01282 0.00375456 0)
(1.01287 0.00405958 0)
(1 -0.000361017 0)
(0.99981 0.000688807 0)
(1.00137 0.000550285 0)
(1.00266 -0.000447837 0)
(1.00242 0.000849903 0)
(1.00301 0.00153666 0)
(1.0042 0.000997791 0)
(1.00448 0.00130542 0)
(1.00463 0.00191416 0)
(1.00515 0.00181169 0)
(1.00561 0.00163539 0)
(1.00597 0.00186928 0)
(1.00683 0.00213321 0)
(1.00806 0.00220377 0)
(1.00926 0.00229711 0)
(1.01023 0.0025718 0)
(1.01122 0.00292991 0)
(1.01221 0.00325 0)
(1.01299 0.00350261 0)
(1.01306 0.00375119 0)
(1.00001 -0.000314567 0)
(0.999841 0.00064928 0)
(1.00125 0.000707067 0)
(1.00264 -0.000262988 0)
(1.00255 0.000830663 0)
(1.003 0.00167833 0)
(1.00414 0.00122973 0)
(1.00456 0.00135868 0)
(1.00469 0.00195662 0)
(1.00511 0.00199041 0)
(1.00561 0.00178864 0)
(1.00605 0.00190803 0)
(1.0069 0.00213353 0)
(1.0081 0.00222211 0)
(1.00934 0.00228254 0)
(1.01037 0.00247955 0)
(1.01138 0.00276089 0)
(1.01237 0.00302895 0)
(1.01314 0.00323733 0)
(1.01321 0.00343346 0)
(1.00002 -0.000252662 0)
(0.999877 0.000593292 0)
(1.00114 0.000839228 0)
(1.0026 -5.53277e-05 0)
(1.00268 0.00083943 0)
(1.003 0.00181076 0)
(1.00407 0.00149509 0)
(1.0046 0.00146696 0)
(1.00475 0.00199342 0)
(1.00508 0.00214402 0)
(1.00558 0.00195997 0)
(1.00609 0.00196771 0)
(1.00695 0.00212311 0)
(1.00813 0.00220522 0)
(1.00939 0.00224117 0)
(1.01048 0.00237456 0)
(1.01151 0.00258142 0)
(1.01249 0.00279105 0)
(1.01326 0.00295186 0)
(1.01333 0.00309762 0)
(1.00002 -0.000180081 0)
(0.999918 0.000522122 0)
(1.00104 0.000961928 0)
(1.00255 0.000188593 0)
(1.0028 0.000888769 0)
(1.00303 0.00192574 0)
(1.00399 0.00176857 0)
(1.00462 0.0016158 0)
(1.00481 0.00203084 0)
(1.00507 0.00225931 0)
(1.00553 0.00213824 0)
(1.0061 0.00205699 0)
(1.00698 0.00212525 0)
(1.00815 0.00217135 0)
(1.00942 0.00218292 0)
(1.01055 0.00225742 0)
(1.01161 0.00239472 0)
(1.01259 0.00254006 0)
(1.01334 0.00264861 0)
(1.01342 0.0027427 0)
(1.00002 -0.000112026 0)
(0.999964 0.000482223 0)
(1.00097 0.00108389 0)
(1.00248 0.000442951 0)
(1.0029 0.000959852 0)
(1.00307 0.00201212 0)
(1.00391 0.00203649 0)
(1.0046 0.00180675 0)
(1.00486 0.00209138 0)
(1.00506 0.00234811 0)
(1.00548 0.00230646 0)
(1.00606 0.00217315 0)
(1.00697 0.00214626 0)
(1.00814 0.00212919 0)
(1.00942 0.00210431 0)
(1.01058 0.00211891 0)
(1.01166 0.00219105 0)
(1.01264 0.00227047 0)
(1.01339 0.00232487 0)
(1.01347 0.00236679 0)
(1.00002 -4.4316e-05 0)
(1.00001 0.000476251 0)
(1.00091 0.00118962 0)
(1.0024 0.000715762 0)
(1.00299 0.00106372 0)
(1.00314 0.00209109 0)
(1.00383 0.00228806 0)
(1.00454 0.00204209 0)
(1.00488 0.00218188 0)
(1.00506 0.00242442 0)
(1.00541 0.00244283 0)
(1.00599 0.00230242 0)
(1.00692 0.00218452 0)
(1.0081 0.0020915 0)
(1.00939 0.00200894 0)
(1.01057 0.00196475 0)
(1.01167 0.0019695 0)
(1.01265 0.00198649 0)
(1.01339 0.0019847 0)
(1.01347 0.00197449 0)
(1.00001 2.71079e-05 0)
(1.00006 0.000498188 0)
(1.00087 0.00128106 0)
(1.00231 0.000992079 0)
(1.00305 0.00120474 0)
(1.00321 0.0021679 0)
(1.00376 0.00251737 0)
(1.00445 0.00230985 0)
(1.00487 0.00231779 0)
(1.00505 0.0025045 0)
(1.00535 0.00255405 0)
(1.00589 0.00242828 0)
(1.00681 0.00224063 0)
(1.00801 0.00206226 0)
(1.00931 0.00190268 0)
(1.01051 0.00179183 0)
(1.01163 0.00172399 0)
(1.01261 0.00167692 0)
(1.01334 0.0016177 0)
(1.01343 0.0015557 0)
(1.00001 9.37559e-05 0)
(1.00011 0.000546244 0)
(1.00084 0.00137414 0)
(1.00222 0.00126409 0)
(1.00309 0.00139719 0)
(1.00329 0.00225838 0)
(1.0037 0.00273398 0)
(1.00434 0.00259713 0)
(1.00481 0.00250913 0)
(1.00502 0.0026074 0)
(1.00527 0.00265974 0)
(1.00576 0.00254462 0)
(1.00666 0.00231573 0)
(1.00785 0.00205077 0)
(1.00917 0.00180443 0)
(1.0104 0.00161117 0)
(1.01153 0.00146811 0)
(1.01252 0.00135133 0)
(1.01324 0.00123396 0)
(1.01332 0.00111859 0)
(1.00001 0.000163114 0)
(1.00015 0.000602456 0)
(1.00083 0.00146277 0)
(1.00213 0.00154035 0)
(1.0031 0.0016301 0)
(1.00336 0.0023727 0)
(1.00366 0.0029329 0)
(1.00421 0.0028888 0)
(1.00471 0.00274562 0)
(1.00495 0.00274737 0)
(1.00518 0.00277103 0)
(1.00561 0.00265549 0)
(1.00646 0.00239652 0)
(1.00763 0.00205425 0)
(1.00895 0.00171359 0)
(1.01021 0.0014239 0)
(1.01136 0.00119654 0)
(1.01235 0.00100382 0)
(1.01306 0.000823327 0)
(1.01315 0.000651339 0)
(1 0.000229426 0)
(1.00018 0.000677846 0)
(1.00083 0.00155394 0)
(1.00205 0.00181179 0)
(1.00308 0.00189514 0)
(1.00342 0.00251451 0)
(1.00363 0.00312414 0)
(1.00408 0.00318109 0)
(1.00457 0.00301982 0)
(1.00484 0.00292946 0)
(1.00505 0.00289641 0)
(1.00542 0.00276143 0)
(1.0062 0.00247498 0)
(1.00733 0.00206154 0)
(1.00866 0.00162567 0)
(1.00993 0.00122793 0)
(1.01111 0.000903001 0)
(1.0121 0.000623023 0)
(1.01282 0.000372997 0)
(1.01291 0.000139891 0)
(0.999998 0.000288047 0)
(1.00021 0.00078515 0)
(1.00084 0.00165676 0)
(1.00197 0.0020696 0)
(1.00304 0.00219122 0)
(1.00346 0.00269907 0)
(1.00361 0.00331983 0)
(1.00394 0.00347853 0)
(1.00439 0.00332608 0)
(1.00468 0.00316359 0)
(1.00489 0.00305414 0)
(1.0052 0.00288519 0)
(1.0059 0.00256138 0)
(1.00696 0.00208884 0)
(1.00826 0.00155158 0)
(1.00955 0.00103952 0)
(1.01075 0.000595999 0)
(1.01176 0.000214915 0)
(1.01248 -0.000122379 0)
(1.01259 -0.000430617 0)
(0.999996 0.000339375 0)
(1.00023 0.000916126 0)
(1.00086 0.00176656 0)
(1.00191 0.00231773 0)
(1.00297 0.00251016 0)
(1.00347 0.00292989 0)
(1.00359 0.00352908 0)
(1.0038 0.00377686 0)
(1.00418 0.00366702 0)