/*--------------------------------*- C++ -*----------------------------------*\
| =========                 |                                                 |
| \\      /  F ield         | OpenFOAM: The Open Source CFD Toolbox           |
|  \\    /   O peration     | Version:  v2012                                 |
|   \\  /    A nd           | Website:  www.openfoam.com                      |
|    \\/     M anipulation  |                                                 |
\*---------------------------------------------------------------------------*/
FoamFile
{
    version     2.0;
    format      ascii;
    class       volVectorField;
    location    "2.8";
    object      U;
}
// * * * * * * * * * * * * * * * * * * * * * * * * * * * * * * * * * * * * * //

dimensions      [0 1 -1 0 0 0 0];


internalField   nonuniform List<vector> 
17600
(
(0.84863 0.00610701 0)
(1.15007 -0.00732802 0)
(0.827985 0.00346087 0)
(1.14859 -0.000198972 0)
(0.825126 -0.00136004 0)
(1.13516 0.000941601 0)
(0.837259 0.000682158 0)
(1.12786 -0.000453006 0)
(0.843161 0.000808958 0)
(1.11821 -0.000693132 0)
(0.849688 0.000651927 0)
(1.11051 -0.00114785 0)
(0.853948 0.000481453 0)
(1.10517 -0.00105609 0)
(0.855564 0.000750061 0)
(1.10178 -0.000694352 0)
(0.85249 0.00173117 0)
(1.10045 4.48905e-05 0)
(0.84319 0.00323242 0)
(1.09897 0.000653569 0)
(0.857036 0.00603122 0)
(1.13537 -0.00697711 0)
(0.835802 0.00330976 0)
(1.13179 1.53256e-05 0)
(0.83859 -0.00145066 0)
(1.11768 0.00102273 0)
(0.85529 0.000529668 0)
(1.1076 -0.000285702 0)
(0.865723 0.000683076 0)
(1.09372 -0.000529817 0)
(0.878187 0.000500924 0)
(1.0801 -0.000981158 0)
(0.890597 0.000326014 0)
(1.06577 -0.000892096 0)
(0.904771 0.000657181 0)
(1.04786 -0.00057076 0)
(0.921668 0.00197662 0)
(1.02282 -7.65336e-05 0)
(0.943598 0.00461328 0)
(0.983875 -0.000179414 0)
(0.873599 0.00600096 0)
(1.11328 -0.00662942 0)
(0.853505 0.00314138 0)
(1.10343 0.000172136 0)
(0.865112 -0.00151335 0)
(1.08631 0.00103066 0)
(0.886531 0.000456474 0)
(1.07378 -0.000217457 0)
(0.902185 0.000652035 0)
(1.05637 -0.000511517 0)
(0.919594 0.000517131 0)
(1.03933 -0.00102054 0)
(0.93617 0.000427165 0)
(1.02235 -0.001034 0)
(0.952379 0.000911649 0)
(1.00486 -0.000849005 0)
(0.966182 0.00234418 0)
(0.988158 -0.000385526 0)
(0.975015 0.00496259 0)
(0.973569 0.000708966 0)
(0.895938 0.00602774 0)
(1.08822 -0.00634094 0)
(0.879287 0.00307848 0)
(1.07085 0.00018899 0)
(0.899233 -0.00148035 0)
(1.05065 0.000928593 0)
(0.921159 0.000479997 0)
(1.03887 -0.000299078 0)
(0.937916 0.000750037 0)
(1.02299 -0.000647603 0)
(0.954187 0.00066634 0)
(1.00964 -0.00120028 0)
(0.966935 0.000630066 0)
(0.99883 -0.00124888 0)
(0.976231 0.00116256 0)
(0.990333 -0.00106515 0)
(0.980784 0.00258491 0)
(0.98459 -0.000453364 0)
(0.980488 0.00509343 0)
(0.979639 0.00168413 0)
(0.920647 0.00608018 0)
(1.06392 -0.00610754 0)
(0.908589 0.0031258 0)
(1.04137 9.1635e-05 0)
(0.932824 -0.00136485 0)
(1.02092 0.000776897 0)
(0.95045 0.000538334 0)
(1.0135 -0.000437469 0)
(0.963852 0.000871246 0)
(1.0033 -0.000804652 0)
(0.975167 0.000789882 0)
(0.996659 -0.00134603 0)
(0.982116 0.000753249 0)
(0.992457 -0.00136422 0)
(0.985726 0.00128132 0)
(0.98943 -0.00112492 0)
(0.986084 0.00269032 0)
(0.987012 -0.000372063 0)
(0.98406 0.00518325 0)
(0.983026 0.00261496 0)
(0.94421 0.00613478 0)
(1.0434 -0.00592834 0)
(0.936435 0.00324095 0)
(1.02 -6.73041e-05 0)
(0.959845 -0.00121478 0)
(1.00263 0.000639314 0)
(0.970992 0.000579311 0)
(1.00067 -0.000560087 0)
(0.979571 0.000945019 0)
(0.996295 -0.000917191 0)
(0.986313 0.000840052 0)
(0.994483 -0.00142605 0)
(0.989601 0.000796425 0)
(0.99347 -0.00140836 0)
(0.990789 0.00133161 0)
(0.992007 -0.00112391 0)
(0.989992 0.0027324 0)
(0.989998 -0.00021938 0)
(0.987712 0.00523517 0)
(0.986203 0.00346446 0)
(0.963916 0.00617422 0)
(1.02818 -0.00579703 0)
(0.959332 0.00337672 0)
(1.00788 -0.000233517 0)
(0.978431 -0.00107417 0)
(0.995137 0.000543314 0)
(0.983972 0.000587545 0)
(0.997065 -0.00064798 0)
(0.988725 0.000968497 0)
(0.996263 -0.000991303 0)
(0.992812 0.000844345 0)
(0.99653 -0.00147196 0)
(0.994454 0.000807093 0)
(0.996401 -0.00142413 0)
(0.99475 0.00135643 0)
(0.995131 -0.00108828 0)
(0.993499 0.00273289 0)
(0.993081 2.26131e-06 0)
(0.991015 0.00521594 0)
(0.989491 0.00427863 0)
(0.978475 0.00618723 0)
(1.01814 -0.00570109 0)
(0.975973 0.00349571 0)
(1.00291 -0.000372631 0)
(0.989816 -0.000962899 0)
(0.994293 0.000483325 0)
(0.992017 0.000574954 0)
(0.997873 -0.000709736 0)
(0.994466 0.000964427 0)
(0.998529 -0.00104607 0)
(0.997286 0.000832258 0)
(0.999319 -0.00150215 0)
(0.998165 0.00080998 0)
(0.999266 -0.00142248 0)
(0.997999 0.00136933 0)
(0.99791 -0.00101463 0)
(0.996436 0.00269772 0)
(0.995775 0.000295216 0)
(0.993811 0.00514095 0)
(0.992343 0.00505699 0)
(0.988037 0.00617149 0)
(1.01212 -0.00562761 0)
(0.986818 0.00357814 0)
(1.00192 -0.000474684 0)
(0.996268 -0.000880136 0)
(0.996034 0.000441579 0)
(0.99709 0.000557673 0)
(0.99983 -0.000756123 0)
(0.998276 0.00095113 0)
(1.00082 -0.00109059 0)
(1.00045 0.000816698 0)
(1.00159 -0.00151975 0)
(1.00088 0.000810146 0)
(1.00144 -0.00140118 0)
(1.00041 0.00136977 0)
(0.999988 -0.000900723 0)
(0.998632 0.00262865 0)
(0.997792 0.000660441 0)
(0.995949 0.00503964 0)
(0.994522 0.00577646 0)
(0.993688 0.00613203 0)
(1.00871 -0.0055664 0)
(0.993225 0.00362155 0)
(1.00238 -0.000544491 0)
(0.99974 -0.00081739 0)
(0.998016 0.000404869 0)
(1.00025 0.000544229 0)
(1.00154 -0.000792637 0)
(1.00071 0.000937059 0)
(1.00245 -0.00112725 0)
(1.00248 0.000800399 0)
(1.00308 -0.00152451 0)
(1.00263 0.000804415 0)
(1.00285 -0.00135696 0)
(1.00198 0.00135043 0)
(1.00135 -0.000747183 0)
(1.00009 0.00253149 0)
(0.999148 0.00107069 0)
(0.997436 0.00493498 0)
(0.996065 0.00641124 0)
(0.996765 0.00607638 0)
(1.0068 -0.00550986 0)
(0.996691 0.00363315 0)
(1.00301 -0.000591219 0)
(1.00153 -0.000766996 0)
(0.999435 0.000368232 0)
(1.00209 0.000535382 0)
(1.00267 -0.000821688 0)
(1.00212 0.000923976 0)
(1.0034 -0.0011559 0)
(1.00361 0.000781222 0)
(1.00391 -0.00151551 0)
(1.0036 0.000786589 0)
(1.00365 -0.00128821 0)
(1.00289 0.00130407 0)
(1.00217 -0.000558124 0)
(1.00099 0.0024108 0)
(1.00002 0.00150352 0)
(0.998443 0.00485457 0)
(0.99715 0.00694238 0)
(0.998375 0.00601052 0)
(1.0057 -0.00545246 0)
(0.998441 0.00362157 0)
(1.00342 -0.000622398 0)
(1.0024 -0.000725083 0)
(1.00027 0.000331517 0)
(1.00309 0.000528415 0)
(1.00333 -0.000844304 0)
(1.00284 0.000910383 0)
(1.00389 -0.0011756 0)
(1.00415 0.000755518 0)
(1.0043 -0.00149165 0)
(1.00407 0.000751489 0)
(1.00405 -0.0011955 0)
(1.00337 0.00122886 0)
(1.00263 -0.000342989 0)
(1.00154 0.00227618 0)
(1.00058 0.00193183 0)
(0.999162 0.00482161 0)
(0.997966 0.00736087 0)
(0.999228 0.00593774 0)
(1.00505 -0.00539049 0)
(0.9993 0.003593 0)
(1.0036 -0.000642491 0)
(1.00281 -0.000690618 0)
(1.00071 0.000296259 0)
(1.0036 0.000519926 0)
(1.00369 -0.000860873 0)
(1.00319 0.000893977 0)
(1.00409 -0.00118542 0)
(1.00435 0.000719889 0)
(1.00444 -0.00145154 0)
(1.00425 0.000695162 0)
(1.00423 -0.00107911 0)
(1.0036 0.00112427 0)
(1.0029 -0.000100163 0)
(1.0019 0.00214907 0)
(1.00098 0.00232904 0)
(0.999729 0.00484878 0)
(0.998643 0.00767151 0)
(0.9997 0.00585927 0)
(1.00464 -0.00532182 0)
(0.999737 0.00355089 0)
(1.00365 -0.000653555 0)
(1.003 -0.000663855 0)
(1.00094 0.000264184 0)
(1.00386 0.000507525 0)
(1.00388 -0.000871366 0)
(1.00335 0.00087258 0)
(1.00417 -0.00118368 0)
(1.00442 0.000671023 0)
(1.00446 -0.00139357 0)
(1.00431 0.000616299 0)
(1.00429 -0.000942966 0)
(1.00373 0.000997917 0)
(1.00305 0.000159684 0)
(1.00216 0.00204933 0)
(1.0013 0.00267602 0)
(1.00021 0.00493488 0)
(0.999238 0.00789125 0)
(0.999969 0.00577536 0)
(1.00439 -0.00524538 0)
(0.999983 0.00349687 0)
(1.00364 -0.000656158 0)
(1.0031 -0.000645495 0)
(1.00107 0.000236914 0)
(1.004 0.000489859 0)
(1.00399 -0.000874382 0)
(1.00343 0.000843367 0)
(1.00419 -0.0011679 0)
(1.00443 0.000605501 0)
(1.00445 -0.0013163 0)
(1.00432 0.000515858 0)
(1.00431 -0.000791988 0)
(1.0038 0.000863379 0)
(1.00316 0.00040822 0)
(1.00236 0.00198722 0)
(1.00157 0.00296965 0)
(1.00062 0.00506973 0)
(0.99977 0.00804256 0)
(1.00012 0.00568595 0)
(1.00422 -0.00516054 0)
(1.00014 0.00343143 0)
(1.00361 -0.000649773 0)
(1.00315 -0.000636788 0)
(1.00114 0.000216487 0)
(1.00407 0.000463941 0)
(1.00405 -0.000867468 0)
(1.00347 0.000802178 0)
(1.0042 -0.00113613 0)
(1.00443 0.000521896 0)
(1.00443 -0.0012205 0)
(1.00433 0.000397364 0)
(1.00432 -0.00063107 0)
(1.00386 0.000733205 0)
(1.00324 0.000630163 0)
(1.00253 0.00196915 0)
(1.0018 0.00321881 0)
(1.00099 0.00523825 0)
(1.00025 0.00814583 0)
(1.0002 0.00559087 0)
(1.00412 -0.00506677 0)
(1.00025 0.00335441 0)
(1.00355 -0.000633882 0)
(1.00319 -0.00063819 0)
(1.00118 0.000204631 0)
(1.0041 0.000427256 0)
(1.00408 -0.000849338 0)
(1.00349 0.000746346 0)
(1.00419 -0.0010876 0)
(1.00442 0.00042095 0)
(1.00442 -0.0011094 0)
(1.00434 0.000267612 0)
(1.00432 -0.000470502 0)
(1.00392 0.000624523 0)
(1.00331 0.000817833 0)
(1.00269 0.00199434 0)
(1.00202 0.00343127 0)
(1.00133 0.00542344 0)
(1.00068 0.00821707 0)
(1.00023 0.00548995 0)
(1.00404 -0.00496366 0)
(1.00033 0.00326574 0)
(1.00349 -0.000608205 0)
(1.00321 -0.000650592 0)
(1.00121 0.000203238 0)
(1.00411 0.000378009 0)
(1.00411 -0.000818338 0)
(1.00351 0.000675061 0)
(1.00419 -0.0010225 0)
(1.00443 0.000306226 0)
(1.00441 -0.000987925 0)
(1.00436 0.000135522 0)
(1.00434 -0.000322163 0)
(1.00398 0.000549229 0)
(1.00339 0.000975248 0)
(1.00284 0.00206005 0)
(1.00224 0.0036166 0)
(1.00165 0.00561447 0)
(1.00109 0.00827299 0)
(1.00025 0.005383 0)
(1.00398 -0.00485081 0)
(1.0004 0.00316485 0)
(1.00341 -0.000570948 0)
(1.00324 -0.000677226 0)
(1.00123 0.000215331 0)
(1.00411 0.000313918 0)
(1.00412 -0.000772462 0)
(1.00351 0.000588621 0)
(1.00418 -0.000945188 0)
(1.00444 0.000184237 0)
(1.0044 -0.000862793 0)
(1.00439 1.8298e-05 0)
(1.00435 -0.000192738 0)
(1.00405 0.000503484 0)
(1.00347 0.00110816 0)
(1.003 0.00215779 0)
(1.00246 0.00378442 0)
(1.00196 0.00580569 0)
(1.00147 0.00833106 0)
(1.00025 0.00526976 0)
(1.00392 -0.00472745 0)
(1.00047 0.00305015 0)
(1.00333 -0.000520109 0)
(1.00326 -0.00071943 0)
(1.00124 0.000241046 0)
(1.0041 0.000234898 0)
(1.00412 -0.00071468 0)
(1.00352 0.000489262 0)
(1.00417 -0.000858216 0)
(1.00445 5.42278e-05 0)
(1.0044 -0.000743734 0)
(1.00443 -8.95655e-05 0)
(1.00438 -8.78818e-05 0)
(1.00412 0.000477824 0)
(1.00357 0.00121884 0)
(1.00316 0.00227372 0)
(1.00269 0.00393965 0)
(1.00227 0.00598869 0)
(1.00184 0.00840035 0)
(1.00025 0.00515006 0)
(1.00387 -0.00459313 0)
(1.00053 0.00292069 0)
(1.00325 -0.000456198 0)
(1.00329 -0.000776768 0)
(1.00125 0.000281379 0)
(1.00409 0.000140565 0)
(1.00413 -0.000647022 0)
(1.00353 0.00037821 0)
(1.00415 -0.000764951 0)
(1.00446 -7.95104e-05 0)
(1.0044 -0.000644932 0)
(1.00447 -0.000185833 0)
(1.00441 -1.39478e-05 0)
(1.0042 0.000472531 0)
(1.00367 0.00131824 0)
(1.00334 0.00240239 0)
(1.00293 0.00409086 0)
(1.00259 0.00615686 0)
(1.0022 0.00848097 0)
(1.00025 0.00502418 0)
(1.00381 -0.00444742 0)
(1.0006 0.00277623 0)
(1.00316 -0.000378057 0)
(1.00331 -0.00085175 0)
(1.00126 0.000338095 0)
(1.00407 3.19416e-05 0)
(1.00413 -0.000570919 0)
(1.00353 0.000262781 0)
(1.00414 -0.000675721 0)
(1.00448 -0.000201905 0)
(1.0044 -0.000571351 0)
(1.00451 -0.000252882 0)
(1.00445 3.10117e-05 0)
(1.00429 0.000482273 0)
(1.00379 0.00141446 0)
(1.00353 0.00254092 0)
(1.00319 0.00424989 0)
(1.00291 0.00631006 0)
(1.00256 0.00857095 0)
(1.00025 0.00489122 0)
(1.00375 -0.00428667 0)
(1.00067 0.00261328 0)
(1.00308 -0.000280486 0)
(1.00334 -0.000946785 0)
(1.00128 0.000410322 0)
(1.00406 -8.95914e-05 0)
(1.00414 -0.000488348 0)
(1.00354 0.000148411 0)
(1.00413 -0.000596502 0)
(1.0045 -0.000304844 0)
(1.00441 -0.000523374 0)
(1.00455 -0.000298962 0)
(1.0045 5.63407e-05 0)
(1.00438 0.000484456 0)
(1.00393 0.00150001 0)
(1.00372 0.00267397 0)
(1.00346 0.00441867 0)
(1.00325 0.00645093 0)
(1.00292 0.00867177 0)
(1.00024 0.00474799 0)
(1.0037 -0.00410831 0)
(1.00073 0.00242632 0)
(1.00299 -0.000162996 0)
(1.00336 -0.00106518 0)
(1.00129 0.000498906 0)
(1.00404 -0.000225851 0)
(1.00415 -0.000401574 0)
(1.00354 2.99313e-05 0)
(1.00412 -0.000542656 0)
(1.00451 -0.000377058 0)
(1.00442 -0.000509315 0)
(1.0046 -0.000326044 0)
(1.00455 7.06106e-05 0)
(1.00448 0.000480642 0)
(1.00408 0.00155542 0)
(1.00394 0.00279064 0)
(1.00374 0.00456765 0)
(1.00359 0.00658408 0)
(1.00328 0.00878857 0)
(1.00022 0.00460448 0)
(1.00365 -0.003928 0)
(1.0008 0.00223341 0)
(1.00291 -4.49138e-05 0)
(1.00338 -0.00118536 0)
(1.00131 0.000578533 0)
(1.00402 -0.000346442 0)
(1.00416 -0.000342326 0)
(1.00354 -5.36022e-05 0)
(1.00411 -0.000548786 0)
(1.00452 -0.000390194 0)
(1.00443 -0.000550981 0)
(1.00464 -0.000315648 0)
(1.00461 5.1858e-05 0)
(1.00458 0.000514431 0)
(1.00424 0.00153966 0)
(1.00416 0.00290223 0)
(1.00404 0.00459877 0)
(1.00395 0.00669818 0)
(1.00365 0.00889636 0)
(1.00021 0.00444929 0)
(1.00359 -0.00372045 0)
(1.00086 0.00201102 0)
(1.00283 0.000100149 0)
(1.00339 -0.00132802 0)
(1.00134 0.000674321 0)
(1.00399 -0.000474114 0)
(1.00418 -0.000290989 0)
(1.00354 -0.000121218 0)
(1.00411 -0.00055806 0)
(1.00453 -0.0004145 0)
(1.00445 -0.000571663 0)
(1.00468 -0.000354338 0)
(1.00467 7.188e-05 0)
(1.00469 0.000522961 0)
(1.00442 0.00154683 0)
(1.0044 0.00293727 0)
(1.00436 0.00460213 0)
(1.00434 0.00663543 0)
(1.00404 0.00886158 0)
(1.00019 0.00428186 0)
(1.00354 -0.00348785 0)
(1.00092 0.0017565 0)
(1.00275 0.00026625 0)
(1.0034 -0.00149131 0)
(1.00137 0.000778532 0)
(1.00396 -0.000598306 0)
(1.00421 -0.000262787 0)
(1.00353 -0.000159029 0)
(1.00412 -0.000581346 0)
(1.00453 -0.000443659 0)
(1.00447 -0.000562822 0)
(1.00473 -0.000413801 0)
(1.00474 9.31114e-05 0)
(1.00479 0.000519016 0)
(1.00461 0.00158639 0)
(1.00465 0.00299635 0)
(1.00467 0.00468047 0)
(1.00473 0.00659573 0)
(1.00448 0.00884354 0)
(1.00016 0.00411894 0)
(1.00348 -0.00325784 0)
(1.00098 0.00150352 0)
(1.00266 0.00042114 0)
(1.00341 -0.00163476 0)
(1.0014 0.000842155 0)
(1.00392 -0.00066023 0)
(1.00424 -0.000297159 0)
(1.00351 -0.00013391 0)
(1.00412 -0.000653641 0)
(1.00454 -0.000438651 0)
(1.00449 -0.000563364 0)
(1.00477 -0.000430089 0)
(1.00482 0.000108266 0)
(1.00491 0.000625099 0)
(1.00481 0.0016449 0)
(1.0049 0.00315183 0)
(1.005 0.00479614 0)
(1.00512 0.00669291 0)
(1.00494 0.00881473 0)
(1.00014 0.00393822 0)
(1.00342 -0.00299461 0)
(1.00104 0.00122364 0)
(1.00258 0.000589398 0)
(1.00341 -0.00178248 0)
(1.00144 0.000897304 0)
(1.00387 -0.000690223 0)
(1.00427 -0.000362272 0)
(1.0035 -9.3144e-05 0)
(1.00412 -0.000720664 0)
(1.00455 -0.000437945 0)
(1.0045 -0.000535849 0)
(1.00482 -0.000422595 0)
(1.00491 0.0002327 0)
(1.00503 0.000822313 0)
(1.00502 0.00178498 0)
(1.00518 0.00328613 0)
(1.00533 0.00495786 0)
(1.00552 0.00679106 0)
(1.00539 0.00880245 0)
(1.00011 0.00375607 0)
(1.00335 -0.00272237 0)
(1.0011 0.000935495 0)
(1.0025 0.000746968 0)
(1.00342 -0.00191445 0)
(1.00148 0.000911467 0)
(1.00382 -0.000684752 0)
(1.00431 -0.000467926 0)
(1.00348 -3.69122e-05 0)
(1.00412 -0.000774881 0)
(1.00456 -0.000435752 0)
(1.00452 -0.000443768 0)
(1.00488 -0.000345069 0)
(1.00502 0.000386836 0)
(1.00515 0.00104559 0)
(1.00523 0.0019445 0)
(1.00546 0.00338829 0)
(1.00568 0.00509594 0)
(1.00592 0.00686797 0)
(1.00584 0.00876486 0)
(1.00009 0.00356825 0)
(1.00327 -0.00244032 0)
(1.00116 0.000645442 0)
(1.00241 0.000887031 0)
(1.00342 -0.00201634 0)
(1.00153 0.000875269 0)
(1.00376 -0.000647767 0)
(1.00435 -0.000586661 0)
(1.00346 1.87248e-05 0)
(1.00411 -0.000788304 0)
(1.00459 -0.000433011 0)
(1.00455 -0.000260624 0)
(1.00494 -0.000231224 0)
(1.00514 0.000503549 0)
(1.00528 0.00126224 0)
(1.00544 0.00211097 0)
(1.00576 0.0034713 0)
(1.00604 0.0051842 0)
(1.00632 0.00691786 0)
(1.00627 0.00870189 0)
(1.00007 0.00337375 0)
(1.00318 -0.00214964 0)
(1.00122 0.000363303 0)
(1.00232 0.000994876 0)
(1.00341 -0.00209041 0)
(1.00158 0.000807594 0)
(1.0037 -0.000583834 0)
(1.00439 -0.000710941 0)
(1.00345 9.32525e-05 0)
(1.0041 -0.00073551 0)
(1.00463 -0.000405934 0)
(1.00458 -5.27436e-05 0)
(1.005 -0.000102052 0)
(1.00527 0.000584246 0)
(1.00542 0.0014545 0)
(1.00565 0.002291 0)
(1.00606 0.00354239 0)
(1.00641 0.00521974 0)
(1.00671 0.00692185 0)
(1.00669 0.00860282 0)
(1.00005 0.00317832 0)
(1.00307 -0.00186285 0)
(1.00128 0.000102 0)
(1.00223 0.00106737 0)
(1.0034 -0.00213934 0)
(1.00163 0.000707618 0)
(1.00363 -0.000495732 0)
(1.00443 -0.000828119 0)
(1.00345 0.000198248 0)
(1.00409 -0.000601273 0)
(1.00468 -0.000376358 0)
(1.00461 0.000142523 0)
(1.00505 4.459e-05 0)
(1.0054 0.000639507 0)
(1.00558 0.00160031 0)
(1.00585 0.00247133 0)
(1.00635 0.00360804 0)
(1.00678 0.00521053 0)
(1.00711 0.00687772 0)
(1.00711 0.00847225 0)
(1.00003 0.00297909 0)
(1.00296 -0.00157901 0)
(1.00134 -0.000137346 0)
(1.00214 0.00111148 0)
(1.00338 -0.00215737 0)
(1.00169 0.000582164 0)
(1.00356 -0.000392908 0)
(1.00447 -0.000907596 0)
(1.00347 0.000322879 0)
(1.00406 -0.000411029 0)
(1.00473 -0.000355331 0)
(1.00465 0.000306426 0)
(1.00509 0.00021836 0)
(1.00554 0.000690217 0)
(1.00576 0.00170141 0)
(1.00605 0.00264066 0)
(1.00664 0.00368137 0)
(1.00716 0.0051737 0)
(1.00752 0.00679551 0)
(1.00751 0.00832081 0)
(1.00002 0.00277976 0)
(1.00284 -0.00130822 0)
(1.0014 -0.000341137 0)
(1.00205 0.00111637 0)
(1.00336 -0.00215661 0)
(1.00176 0.00044476 0)
(1.0035 -0.000272927 0)
(1.00452 -0.000946496 0)
(1.0035 0.000442488 0)
(1.00402 -0.000185904 0)
(1.00479 -0.000330136 0)
(1.0047 0.000429218 0)
(1.00513 0.000425774 0)
(1.00567 0.000765873 0)
(1.00595 0.00176895 0)
(1.00626 0.0027846 0)
(1.00691 0.0037625 0)
(1.00753 0.00512275 0)
(1.00793 0.00667863 0)
(1.00791 0.0081454 0)
(1.00001 0.00258342 0)
(1.00271 -0.001059 0)
(1.00145 -0.000505717 0)
(1.00196 0.00109184 0)
(1.00333 -0.00214136 0)
(1.00184 0.000299572 0)
(1.00343 -0.000109788 0)
(1.00456 -0.000947643 0)
(1.00355 0.000529815 0)
(1.00398 4.152e-05 0)
(1.00483 -0.000295837 0)
(1.00477 0.000507773 0)
(1.00516 0.000643388 0)
(1.0058 0.000866481 0)
(1.00615 0.0018105 0)
(1.00647 0.00289191 0)
(1.00718 0.00385092 0)
(1.00789 0.00507808 0)
(1.00833 0.00654246 0)
(1.0083 0.00795189 0)
(1 0.00238514 0)
(1.00257 -0.000823015 0)
(1.0015 -0.000645607 0)
(1.00188 0.00106402 0)
(1.00329 -0.00209486 0)
(1.00192 0.000154833 0)
(1.00337 9.37999e-05 0)
(1.00461 -0.000917707 0)
(1.00362 0.000567675 0)
(1.00393 0.000263648 0)
(1.00487 -0.000241122 0)
(1.00486 0.000547841 0)
(1.0052 0.000849212 0)
(1.00591 0.000990343 0)
(1.00637 0.00183699 0)
(1.00671 0.00296102 0)
(1.00744 0.00393646 0)
(1.00823 0.00504699 0)
(1.00873 0.00639689 0)
(1.00869 0.00774186 0)
(0.999998 0.00218996 0)
(1.00243 -0.000611442 0)
(1.00154 -0.000754952 0)
(1.00179 0.00103545 0)
(1.00325 -0.00200479 0)
(1.00202 2.04678e-05 0)
(1.00332 0.000296295 0)
(1.00464 -0.000856106 0)
(1.0037 0.000556558 0)
(1.00388 0.000494833 0)
(1.0049 -0.000145711 0)
(1.00496 0.000567186 0)
(1.00526 0.00103441 0)
(1.00601 0.00114553 0)
(1.00658 0.00186937 0)
(1.00696 0.00300186 0)
(1.00771 0.00400705 0)
(1.00856 0.00502354 0)
(1.00913 0.00624386 0)
(1.00908 0.00751056 0)
(0.999995 0.00200177 0)
(1.00229 -0.000433055 0)
(1.00158 -0.000835964 0)
(1.00172 0.00101273 0)
(1.0032 -0.00186771 0)
(1.00214 -0.000105023 0)
(1.00327 0.00048257 0)
(1.00466 -0.000758019 0)
(1.0038 0.000516108 0)
(1.00384 0.000714456 0)
(1.00491 -7.66589e-06 0)
(1.00507 0.000573805 0)
(1.00533 0.00118388 0)
(1.0061 0.0013207 0)
(1.00679 0.00191652 0)
(1.00723 0.0030152 0)
(1.00797 0.0040468 0)
(1.00887 0.00499324 0)
(1.0095 0.00608208 0)
(1.00947 0.00725606 0)
(0.999993 0.00181669 0)
(1.00214 -0.000275547 0)
(1.00161 -0.000901854 0)
(1.00165 0.000999606 0)
(1.00314 -0.00168451 0)
(1.00226 -0.000221048 0)
(1.00324 0.000640921 0)
(1.00467 -0.000619289 0)
(1.00391 0.000456781 0)
(1.00382 0.00090392 0)
(1.00491 0.000166152 0)
(1.00519 0.000581094 0)
(1.00542 0.0012927 0)
(1.00618 0.00150038 0)
(1.00699 0.00198207 0)
(1.00751 0.00300632 0)
(1.00825 0.0040485 0)
(1.00917 0.00494745 0)
(1.00986 0.0059146 0)
(1.00985 0.00698502 0)
(0.999993 0.00163537 0)
(1.002 -0.000134857 0)
(1.00164 -0.000954999 0)
(1.00159 0.000992491 0)
(1.00308 -0.00144782 0)
(1.00239 -0.000315786 0)
(1.00323 0.000764615 0)
(1.00467 -0.000439906 0)
(1.00404 0.000395922 0)
(1.00382 0.00105189 0)
(1.00489 0.000368717 0)
(1.00531 0.000608308 0)
(1.00554 0.00136755 0)
(1.00628 0.00167291 0)
(1.00718 0.00206855 0)
(1.00779 0.00298951 0)
(1.00854 0.00401835 0)
(1.00946 0.00488706 0)
(1.0102 0.00574886 0)
(1.01021 0.00670926 0)
(0.999995 0.00145949 0)
(1.00185 -7.00648e-06 0)
(1.00167 -0.0010031 0)
(1.00155 0.000980396 0)
(1.00301 -0.00116349 0)
(1.00252 -0.0003798 0)
(1.00323 0.000861903 0)
(1.00466 -0.000232609 0)
(1.00417 0.000354315 0)
(1.00384 0.00115323 0)
(1.00487 0.000587891 0)
(1.00542 0.000667218 0)
(1.00567 0.0014167 0)
(1.00638 0.00182195 0)
(1.00735 0.00216491 0)
(1.00806 0.00296868 0)
(1.00884 0.00395824 0)
(1.00974 0.00480658 0)
(1.01052 0.00558289 0)
(1.01057 0.00643256 0)
(0.999999 0.00128831 0)
(1.00171 0.000110205 0)
(1.0017 -0.0010464 0)
(1.00154 0.000951608 0)
(1.00294 -0.00084882 0)
(1.00265 -0.000399479 0)
(1.00326 0.000930035 0)
(1.00464 -1.12056e-05 0)
(1.00429 0.000342314 0)
(1.00388 0.00121305 0)
(1.00485 0.00080373 0)
(1.00552 0.000754878 0)
(1.00583 0.00144968 0)
(1.00649 0.00193856 0)
(1.00752 0.00226171 0)
(1.00833 0.0029499 0)
(1.00914 0.00387748 0)
(1.01003 0.0047067 0)
(1.01082 0.00541706 0)
(1.0109 0.00616093 0)
(1 0.00112483 0)
(1.00156 0.000209826 0)
(1.00172 -0.00108095 0)
(1.00154 0.000902865 0)
(1.00286 -0.00051272 0)
(1.00277 -0.000362748 0)
(1.00331 0.000971486 0)
(1.00461 0.000214138 0)
(1.00442 0.00036538 0)
(1.00396 0.00124194 0)
(1.00483 0.00100085 0)
(1.00561 0.000864443 0)
(1.00599 0.00147729 0)
(1.00662 0.00202302 0)
(1.00768 0.00235183 0)
(1.00859 0.00293687 0)
(1.00944 0.0037845 0)
(1.01032 0.00458742 0)
(1.0111 0.0052471 0)
(1.01121 0.00589512 0)
(1.00001 0.000971289 0)
(1.00142 0.000294623 0)
(1.00174 -0.00109355 0)
(1.00157 0.000830854 0)
(1.0028 -0.000174205 0)
(1.00288 -0.000270312 0)
(1.00337 0.00099396 0)
(1.00459 0.000442483 0)
(1.00453 0.000432266 0)
(1.00405 0.00126079 0)
(1.00483 0.00117688 0)
(1.00569 0.000992565 0)
(1.00616 0.00150785 0)
(1.00677 0.002081 0)
(1.00783 0.00242846 0)
(1.00883 0.00292734 0)
(1.00974 0.00368243 0)
(1.01061 0.00444616 0)
(1.01138 0.00506457 0)
(1.0115 0.00563028 0)
(1.00002 0.000830225 0)
(1.00128 0.000366654 0)
(1.00176 -0.00106648 0)
(1.00162 0.000742933 0)
(1.00274 0.000141756 0)
(1.00297 -0.000131089 0)
(1.00345 0.00101072 0)
(1.00458 0.000663593 0)
(1.00463 0.000543806 0)
(1.00416 0.0012855 0)
(1.00484 0.00133212 0)
(1.00576 0.00113437 0)
(1.00633 0.0015449 0)
(1.00694 0.00211862 0)
(1.00799 0.00248706 0)
(1.00905 0.0029174 0)
(1.01003 0.00357421 0)
(1.0109 0.00428469 0)
(1.01165 0.00486655 0)
(1.01177 0.00536499 0)
(1.00003 0.000701827 0)
(1.00114 0.000439472 0)
(1.00176 -0.000988614 0)
(1.00169 0.000641891 0)
(1.0027 0.000423715 0)
(1.00304 4.68417e-05 0)
(1.00354 0.00102556 0)
(1.00457 0.000860081 0)
(1.00472 0.000683319 0)
(1.00427 0.00131816 0)
(1.00486 0.00146548 0)
(1.00582 0.00128118 0)
(1.0065 0.0015893 0)
(1.00711 0.00213776 0)
(1.00815 0.00252177 0)
(1.00926 0.00289824 0)
(1.01031 0.00345766 0)
(1.01119 0.00410275 0)
(1.01191 0.00464926 0)
(1.01201 0.00509443 0)
(1.00004 0.000579801 0)
(1.00101 0.000521226 0)
(1.00176 -0.000851454 0)
(1.00178 0.000544536 0)
(1.00267 0.000664309 0)
(1.0031 0.000260582 0)
(1.00363 0.00104358 0)
(1.00457 0.00102669 0)
(1.0048 0.000840345 0)
(1.00439 0.00136101 0)
(1.0049 0.00157703 0)
(1.00587 0.00142372 0)
(1.00665 0.00164062 0)
(1.00729 0.00214068 0)
(1.00831 0.00253 0)
(1.00946 0.00286388 0)
(1.01057 0.00333291 0)
(1.01146 0.00390431 0)
(1.01216 0.00441367 0)
(1.01224 0.00481596 0)
(1.00004 0.000482763 0)
(1.00089 0.000579334 0)
(1.00174 -0.000685804 0)
(1.00187 0.0004639 0)
(1.00267 0.000853148 0)
(1.00314 0.000494816 0)
(1.00372 0.0010816 0)
(1.00459 0.00116536 0)
(1.00486 0.00101071 0)
(1.00451 0.0014259 0)
(1.00495 0.00167652 0)
(1.00591 0.00156287 0)
(1.00678 0.00170446 0)
(1.00746 0.00213875 0)
(1.00847 0.00251872 0)
(1.00963 0.00281645 0)
(1.0108 0.00320465 0)
(1.01173 0.00369793 0)
(1.0124 0.00416574 0)
(1.01246 0.00453162 0)
(1.00005 0.000405526 0)
(1.00078 0.000620656 0)
(1.0017 -0.000498904 0)
(1.00197 0.000404933 0)
(1.00268 0.000995056 0)
(1.00317 0.000738914 0)
(1.0038 0.00115563 0)
(1.00461 0.00128274 0)
(1.00492 0.00117783 0)
(1.00461 0.00151316 0)
(1.00501 0.0017669 0)
(1.00595 0.00169153 0)
(1.0069 0.00177434 0)
(1.00763 0.00213503 0)
(1.00862 0.00248852 0)
(1.0098 0.00275088 0)
(1.01101 0.00306566 0)
(1.01197 0.00347889 0)
(1.01264 0.00389916 0)
(1.01266 0.00423275 0)
(1.00006 0.000336522 0)
(1.00069 0.000667733 0)
(1.00166 -0.000280226 0)
(1.00206 0.000381201 0)
(1.00272 0.00109679 0)
(1.00319 0.000981445 0)
(1.00386 0.00126457 0)
(1.00464 0.00139369 0)
(1.00498 0.00132884 0)
(1.00471 0.00161155 0)
(1.00506 0.00185122 0)
(1.00599 0.00180204 0)
(1.007 0.00183991 0)
(1.00778 0.00212906 0)
(1.00877 0.00244352 0)
(1.00994 0.0026688 0)
(1.01119 0.00291337 0)
(1.01219 0.00324448 0)
(1.01286 0.00360953 0)
(1.01285 0.00391208 0)
(1.00007 0.00028391 0)
(1.0006 0.000715651 0)
(1.00161 -5.81225e-05 0)
(1.00214 0.000387099 0)
(1.00277 0.00116058 0)
(1.00321 0.00121036 0)
(1.0039 0.00140201 0)
(1.00466 0.0015118 0)
(1.00503 0.00147389 0)
(1.0048 0.0017174 0)
(1.00512 0.00194075 0)
(1.00601 0.00190115 0)
(1.00708 0.00189934 0)
(1.00791 0.00212159 0)
(1.0089 0.00239273 0)
(1.01006 0.00258093 0)
(1.01134 0.00275664 0)
(1.01238 0.00300239 0)
(1.01305 0.00330235 0)
(1.01302 0.0035701 0)
(1.00007 0.000250017 0)
(1.00052 0.000741572 0)
(1.00154 0.000171885 0)
(1.00221 0.00044141 0)
(1.00283 0.00121535 0)
(1.00323 0.00142641 0)
(1.00393 0.00156857 0)
(1.00468 0.00164214 0)
(1.00507 0.0016242 0)
(1.00488 0.00183359 0)
(1.00516 0.00203791 0)
(1.00602 0.00199541 0)
(1.00713 0.00195099 0)
(1.00802 0.00210533 0)
(1.00901 0.00233329 0)
(1.01015 0.00248661 0)
(1.01144 0.00259846 0)
(1.01253 0.00275687 0)
(1.01322 0.00298087 0)
(1.01317 0.00320459 0)
(1.00007 0.000237918 0)
(1.00046 0.000741168 0)
(1.00147 0.00040643 0)
(1.00225 0.000546542 0)
(1.0029 0.00127727 0)
(1.00325 0.00162368 0)
(1.00394 0.00175818 0)
(1.00468 0.0017838 0)
(1.0051 0.00177874 0)
(1.00495 0.00195916 0)
(1.00519 0.00214338 0)
(1.00602 0.00208596 0)
(1.00715 0.00199811 0)
(1.0081 0.00207425 0)
(1.0091 0.00225719 0)
(1.01021 0.00237511 0)
(1.01151 0.00243457 0)
(1.01262 0.00250789 0)
(1.01335 0.00264824 0)
(1.01331 0.00281554 0)
(1.00008 0.000235961 0)
(1.00042 0.000743766 0)
(1.00141 0.000623634 0)
(1.00228 0.000685993 0)
(1.00298 0.00134917 0)
(1.00329 0.00179845 0)
(1.00394 0.00196694 0)
(1.00467 0.00194562 0)
(1.00512 0.00193677 0)
(1.005 0.0020913 0)
(1.00521 0.00225733 0)
(1.00599 0.00217908 0)
(1.00715 0.00204428 0)
(1.00815 0.0020356 0)
(1.00916 0.00215941 0)
(1.01025 0.00223992 0)
(1.01153 0.00225624 0)
(1.01267 0.00225499 0)
(1.01343 0.00230967 0)
(1.0134 0.00240886 0)
(1.00008 0.00023997 0)
(1.00038 0.00076115 0)
(1.00134 0.000822616 0)
(1.00229 0.000865218 0)
(1.00305 0.0014349 0)
(1.00333 0.00196165 0)
(1.00393 0.00217933 0)
(1.00464 0.00213935 0)
(1.00512 0.00209981 0)
(1.00503 0.00223294 0)
(1.00522 0.00237694 0)
(1.00594 0.00228681 0)
(1.0071 0.00209514 0)
(1.00816 0.00200366 0)
(1.0092 0.00204548 0)
(1.01027 0.00208337 0)
(1.01152 0.00205656 0)
(1.01266 0.00199515 0)
(1.01345 0.00196695 0)
(1.01345 0.00199129 0)
(1.00007 0.000255667 0)
(1.00035 0.000788593 0)
(1.00129 0.00100402 0)
(1.00228 0.00107211 0)
(1.00311 0.00154762 0)
(1.00337 0.00212193 0)
(1.00392 0.00239419 0)
(1.00459 0.00235593 0)
(1.00511 0.00227649 0)
(1.00505 0.00237417 0)
(1.0052 0.00249943 0)
(1.00585 0.00240092 0)
(1.00701 0.00215683 0)
(1.00811 0.00197752 0)
(1.00919 0.00192648 0)
(1.01024 0.00190493 0)
(1.01146 0.00183293 0)
(1.01259 0.00171636 0)
(1.01341 0.00161551 0)
(1.01344 0.00156335 0)
(1.00007 0.000278362 0)
(1.00033 0.000826026 0)
(1.00124 0.00117771 0)
(1.00226 0.00128978 0)
(1.00316 0.001694 0)
(1.00342 0.0022783 0)
(1.0039 0.00261621 0)
(1.00452 0.00258761 0)
(1.00506 0.00247849 0)
(1.00505 0.00252285 0)
(1.00517 0.00262795 0)
(1.00574 0.00252279 0)
(1.00687 0.00223702 0)
(1.008 0.00196513 0)
(1.00912 0.00181464 0)
(1.01017 0.00171401 0)
(1.01136 0.00158858 0)
(1.01247 0.00141643 0)
(1.0133 0.001251 0)
(1.01336 0.0011255 0)
(1.00007 0.000306381 0)
(1.00032 0.000871724 0)
(1.00119 0.00134337 0)
(1.00223 0.00152256 0)
(1.00319 0.00187011 0)
(1.00347 0.00244486 0)
(1.00387 0.00284096 0)
(1.00443 0.00284077 0)
(1.00498 0.00270651 0)
(1.00501 0.00269619 0)
(1.00511 0.00276532 0)
(1.0056 0.00265296 0)
(1.00667 0.00233338 0)
(1.00783 0.00197192 0)
(1.00898 0.00171264 0)
(1.01003 0.00151805 0)
(1.01119 0.00132403 0)
(1.01228 0.00109353 0)
(1.01311 0.000863827 0)
(1.01321 0.00067001 0)
(1.00006 0.000341471 0)
(1.00031 0.000929676 0)
(1.00116 0.00149465 0)
(1.00218 0.00176494 0)
(1.00321 0.00207572 0)
(1.00351 0.00262899 0)
(1.00385 0.0030733 0)
(1.00433 0.00311274 0)
(1.00487 0.00296081 0)
(1.00494 0.00289405 0)
(1.00502 0.00291558 0)
(1.00543 0.00278697 0)
(1.00642 0.00243747 0)
(1.00757 0.00199543 0)
(1.00875 0.00162079 0)
(1.00982 0.00131713 0)
(1.01096 0.00103937 0)
(1.01202 0.000737405 0)
(1.01285 0.000441403 0)
(1.01297 0.000176957 0)
(1.00006 0.000376802 0)
(1.0003 0.00100103 0)
(1.00113 0.00164763 0)
(1.00213 0.00200961 0)
(1.0032 0.00231059 0)
(1.00354 0.00282564 0)
(1.00382 0.00330999 0)
(1.00421 0.00340295 0)
(1.00473 0.00324536 0)
(1.00483 0.00312556 0)
(1.0049 0.00309161 0)
(1.00522 0.00293649 0)
(1.00612 0.00255715 0)
(1.00723 0.00204181 0)
(1.00843 0.00154751 0)
(1.00951 0.00112035 0)
(1.01064 0.000735903 0)
(1.01168 0.000346755 0)
(1.0125 -3.10717e-05 0)
(1.01264 -0.000378573 0)
(1.00006 0.000417382 0)
(1.0003 0.00108173 0)
(1.00111 0.00179541 0)
(1.00208 0.00225736 0)
(1.00317 0.00257019 0)
(1.00355 0.00304821 0)
(1.00379 0.00355373 0)
(1.00408 0.0037095 0)
(1.00455 0.00356844 0)
(1.00467 0.00339896 0)
(1.00473 0.0033073 0)
(1.00496 0.00311527 0)
(1.00575 0.00270474 0)
(1.00679 0.00211675 0)