/*--------------------------------*- C++ -*----------------------------------*\
| =========                 |                                                 |
| \\      /  F ield         | OpenFOAM: The Open Source CFD Toolbox           |
|  \\    /   O peration     | Version:  v2012                                 |
|   \\  /    A nd           | Website:  www.openfoam.com                      |
|    \\/     M anipulation  |                                                 |
\*---------------------------------------------------------------------------*/
FoamFile
{
    version     2.0;
    format      ascii;
    class       volScalarField;
    location    "2.7";
    object      p;
}
// * * * * * * * * * * * * * * * * * * * * * * * * * * * * * * * * * * * * * //

dimensions      [0 2 -2 0 0 0 0];


internalField   nonuniform List<scalar> 
17600
(
-1.18063e-10
0.000692432
-0.000377146
-0.000774585
-0.000701083
-0.00106648
-0.00167287
-0.00203502
-0.00244146
-0.00276119
-0.00299498
-0.00307057
-0.00317716
-0.00327364
-0.00288827
-0.00247955
-0.00118883
-2.97378e-05
0.00265302
0.00614604
9.96103e-07
0.000692071
-0.000376083
-0.000776328
-0.000698913
-0.00106872
-0.00167218
-0.00203728
-0.00244047
-0.00276426
-0.00299346
-0.0030748
-0.00317459
-0.00328054
-0.00288331
-0.00249435
-0.00117689
-6.85988e-05
0.00268011
0.00591515
2.84591e-06
0.000691169
-0.000374933
-0.00077876
-0.000696545
-0.00107213
-0.00167092
-0.00204051
-0.00243896
-0.00276841
-0.00299137
-0.00308067
-0.00317167
-0.00329049
-0.00287912
-0.00251545
-0.0011665
-0.000123762
0.00269716
0.0055175
5.68154e-06
0.000689884
-0.000374383
-0.000780709
-0.000694552
-0.00107583
-0.00166959
-0.00204389
-0.00243757
-0.00277265
-0.00298951
-0.00308686
-0.00316963
-0.00330129
-0.00287751
-0.00253672
-0.00116284
-0.000174085
0.00267339
0.00512019
9.96972e-06
0.000688106
-0.000374385
-0.000782252
-0.000692877
-0.00107988
-0.00166824
-0.00204749
-0.00243623
-0.0027771
-0.00298763
-0.00309356
-0.00316762
-0.00331333
-0.00287595
-0.00255925
-0.00116166
-0.000223434
0.00260865
0.00475102
1.5911e-05
0.000685636
-0.000374891
-0.000783657
-0.000691495
-0.00108431
-0.00166674
-0.00205135
-0.00243476
-0.00278183
-0.00298546
-0.00310076
-0.00316528
-0.0033265
-0.00287414
-0.00258332
-0.00116307
-0.000276062
0.00250987
0.00441188
2.33396e-05
0.000682375
-0.000375825
-0.000785089
-0.000690277
-0.00108904
-0.00166506
-0.0020554
-0.00243306
-0.00278682
-0.00298296
-0.00310841
-0.00316278
-0.00334064
-0.00287312
-0.00260812
-0.00117036
-0.000331394
0.00238038
0.00409385
3.19092e-05
0.000678381
-0.000377034
-0.000786647
-0.000689044
-0.001094
-0.00166318
-0.00205965
-0.00243116
-0.00279208
-0.00298015
-0.00311654
-0.00316035
-0.00335566
-0.00287379
-0.0026328
-0.00118643
-0.000387409
0.00221964
0.003785
4.12948e-05
0.000673804
-0.000378368
-0.000788394
-0.000687641
-0.00109917
-0.00166111
-0.00206412
-0.0024291
-0.00279766
-0.00297714
-0.00312516
-0.00315824
-0.00337135
-0.00287699
-0.0026567
-0.00121308
-0.000443744
0.00202814
0.00348037
5.12879e-05
0.0006688
-0.000379725
-0.000790373
-0.000685981
-0.00110457
-0.0016589
-0.00206883
-0.00242692
-0.00280355
-0.002974
-0.00313418
-0.00315678
-0.00338729
-0.00288366
-0.00267916
-0.00125171
-0.000501393
0.00180938
0.00317482
6.17952e-05
0.000663491
-0.000381035
-0.000792617
-0.000684027
-0.0011102
-0.00165657
-0.0020738
-0.00242467
-0.0028097
-0.00297085
-0.00314344
-0.00315638
-0.00340296
-0.00289479
-0.00269978
-0.00130336
-0.000562027
0.00156813
0.00286329
7.28007e-05
0.000657946
-0.00038225
-0.000795159
-0.000681766
-0.00111605
-0.00165415
-0.002079
-0.00242239
-0.00281603
-0.00296785
-0.00315265
-0.00315762
-0.00341778
-0.0029113
-0.00271862
-0.00136821
-0.000628198
0.00130945
0.00254213
8.43248e-05
0.000652195
-0.000383335
-0.000798025
-0.000679193
-0.00112211
-0.00165167
-0.0020844
-0.00242015
-0.0028224
-0.00296525
-0.00316145
-0.00316111
-0.00343128
-0.0029339
-0.00273611
-0.00144612
-0.000702453
0.00103879
0.00220992
9.63967e-05
0.000646244
-0.000384251
-0.000801243
-0.000676307
-0.00112833
-0.0016492
-0.00208994
-0.00241806
-0.00282862
-0.00296338
-0.00316943
-0.00316738
-0.00344329
-0.00296297
-0.00275327
-0.00153677
-0.000791084
0.000761304
0.00186704
0.000109044
0.000640095
-0.00038496
-0.000804829
-0.000673113
-0.00113468
-0.00164679
-0.00209552
-0.00241628
-0.00283442
-0.00296262
-0.00317626
-0.00317685
-0.00345381
-0.00299846
-0.00277218
-0.00163836
-0.000895473
0.000479617
0.00151436
0.00012229
0.000633753
-0.000385421
-0.000808789
-0.000669629
-0.00114111
-0.00164453
-0.00210098
-0.00241503
-0.0028395
-0.00296332
-0.00318171
-0.0031898
-0.00346315
-0.00303997
-0.00279536
-0.00174848
-0.0010173
0.000194097
0.0011534
0.000136149
0.00062723
-0.000385594
-0.00081312
-0.000665893
-0.00114753
-0.00164259
-0.00210613
-0.00241454
-0.00284359
-0.00296576
-0.00318562
-0.00320636
-0.00347197
-0.00308683
-0.00282516
-0.00186585
-0.00115765
-9.52966e-05
0.000786214
0.00015063
0.000620551
-0.000385437
-0.000817801
-0.000661975
-0.00115381
-0.00164114
-0.00211077
-0.00241506
-0.00284643
-0.0029702
-0.00318798
-0.00322634
-0.00348132
-0.00313823
-0.0028645
-0.00199024
-0.00131587
-0.000388934
0.00041446
0.000165727
0.000613761
-0.000384915
-0.000822789
-0.000657981
-0.00115978
-0.00164036
-0.00211469
-0.00241682
-0.00284777
-0.00297674
-0.00318906
-0.00324913
-0.00349267
-0.0031934
-0.00291476
-0.00212197
-0.00149059
-0.000687435
3.94799e-05
0.000181427
0.000606927
-0.000384013
-0.000828004
-0.000654051
-0.00116529
-0.00164047
-0.00211765
-0.00242005
-0.00284751
-0.0029853
-0.00318928
-0.0032739
-0.00350767
-0.00325186
-0.00297701
-0.00226232
-0.00168067
-0.000991139
-0.000337569
0.000197697
0.000600154
-0.000382736
-0.000833345
-0.00065034
-0.00117013
-0.00164172
-0.00211941
-0.0024248
-0.00284573
-0.00299557
-0.00318922
-0.00329995
-0.00352771
-0.00331362
-0.00305187
-0.00241317
-0.00188544
-0.0012999
-0.0007157
0.00021449
0.0005936
-0.000381101
-0.000838708
-0.00064703
-0.00117409
-0.00164431
-0.00211985
-0.00243101
-0.00284274
-0.00300692
-0.00318982
-0.00332672
-0.00355335
-0.00337953
-0.00313953
-0.00257652
-0.00210505
-0.00161335
-0.00109422
0.000231709
0.000587467
-0.00037912
-0.000843911
-0.000644364
-0.00117698
-0.00164838
-0.00211899
-0.00243843
-0.00283894
-0.00301865
-0.00319192
-0.00335393
-0.00358465
-0.00345081
-0.0032399
-0.00275433
-0.00234029
-0.00193121
-0.00147275
0.000249187
0.000582019
-0.000376828
-0.000848756
-0.000642548
-0.00117869
-0.00165394
-0.0021169
-0.00244663
-0.00283415
-0.00303009
-0.00319595
-0.00338128
-0.00362147
-0.00352829
-0.00335273
-0.00294854
-0.00259359
-0.00225447
-0.00185132
0.000266829
0.000577569
-0.000374251
-0.000853248
-0.000641629
-0.00117929
-0.00166075
-0.00211435
-0.00245481
-0.00283108
-0.00304031
-0.00320339
-0.00340826
-0.003664
-0.00361178
-0.00347713
-0.00315946
-0.00286862
-0.00259028
-0.00223099
0.000284496
0.000574489
-0.000371386
-0.00085735
-0.000641772
-0.00117881
-0.00166857
-0.00211193
-0.00246252
-0.00282929
-0.0030475
-0.00321525
-0.00343488
-0.00371176
-0.00370122
-0.00360931
-0.00337984
-0.00316568
-0.00295653
-0.00261898
0.00030182
0.000573259
-0.000368208
-0.000860875
-0.000643197
-0.00117723
-0.00167704
-0.00210888
-0.00246961
-0.00282822
-0.0030558
-0.00322587
-0.00346256
-0.0037628
-0.00379798
-0.00374862
-0.0036075
-0.00347072
-0.00332992
-0.00306198
0.000318587
0.000574324
-0.000364583
-0.000863991
-0.000645565
-0.00117532
-0.00168546
-0.0021059
-0.00247561
-0.00282817
-0.00306373
-0.00323808
-0.00348944
-0.00381871
-0.00390595
-0.00390426
-0.00384437
-0.00378943
-0.00371938
-0.00350534
0.000334516
0.000578048
-0.000360208
-0.000866983
-0.000648254
-0.00117411
-0.00169344
-0.00210592
-0.00248031
-0.00282918
-0.00307178
-0.00325198
-0.00351661
-0.00388837
-0.00402773
-0.00407087
-0.00408832
-0.00411937
-0.00412025
-0.00394768
0.000349188
0.000584837
-0.000354605
-0.000870088
-0.000650781
-0.00117408
-0.00170065
-0.00210915
-0.00248401
-0.00282924
-0.0030825
-0.00327345
-0.00356079
-0.00396627
-0.00415899
-0.00424631
-0.00433707
-0.00445561
-0.00452715
-0.00438944
0.000362362
0.000595124
-0.000347153
-0.000873004
-0.000652484
-0.00117555
-0.00170732
-0.00211135
-0.00248931
-0.00283023
-0.00309824
-0.00330767
-0.00361071
-0.00404738
-0.00429761
-0.00443243
-0.00459051
-0.00479362
-0.00493689
-0.00483167
0.000373781
0.00060901
-0.000336927
-0.000878493
-0.000652973
-0.00117864
-0.00171472
-0.00211327
-0.00249889
-0.00283748
-0.0031193
-0.00334758
-0.00366524
-0.00413012
-0.00444275
-0.00463144
-0.00485011
-0.00513038
-0.00534533
-0.00527281
0.000383247
0.000626326
-0.000322587
-0.000885996
-0.00065252
-0.0011828
-0.00172466
-0.00211518
-0.00251481
-0.00285171
-0.00314042
-0.00339077
-0.00372473
-0.00421519
-0.00459336
-0.00484307
-0.00511774
-0.00546572
-0.00574759
-0.00570885
0.000390767
0.000646642
-0.000303048
-0.000895613
-0.000652024
-0.00118719
-0.00174026
-0.0021187
-0.00253691
-0.0028717
-0.00315984
-0.00343546
-0.00379091
-0.00430472
-0.00474732
-0.00506433
-0.00539462
-0.00580112
-0.00614096
-0.0061355
0.000396498
0.000669114
-0.000276456
-0.000906728
-0.000652798
-0.00119179
-0.00176369
-0.00212962
-0.0025615
-0.00289579
-0.00317802
-0.00348058
-0.00386467
-0.00440078
-0.00490267
-0.00529127
-0.00568044
-0.00613764
-0.00652507
-0.00654952
0.000400765
0.000692716
-0.000240022
-0.00091829
-0.000656371
-0.0011973
-0.00179685
-0.00214566
-0.00258474
-0.00292422
-0.00319636
-0.00352496
-0.00394582
-0.00450481
-0.00505816
-0.00551998
-0.00597321
-0.00647695
-0.00690183
-0.00694979
0.000404026
0.000716446
-0.000190051
-0.00092918
-0.000664524
-0.00120439
-0.00183936
-0.00216676
-0.00260587
-0.00295703
-0.00321733
-0.00356794
-0.00403322
-0.00461787
-0.00521402
-0.00574732
-0.00626992
-0.00682034
-0.00727422
-0.00733696
0.000406779
0.00073914
-0.0001382
-0.000938224
-0.000679113
-0.00121327
-0.00188852
-0.0021937
-0.00262442
-0.00299363
-0.00324348
-0.00360926
-0.00412439
-0.00474102
-0.00537258
-0.00597094
-0.00656614
-0.00716687
-0.00764484
-0.00771315
0.000409835
0.000759671
-8.13287e-05
-0.000944224
-0.000701216
-0.0012234
-0.00194233
-0.0022277
-0.00264059
-0.00303288
-0.00327689
-0.0036493
-0.00421586
-0.00487445
-0.00553766
-0.00618995
-0.00685633
-0.0075126
-0.00801466
-0.00808126
0.000414248
0.00077729
-2.12079e-05
-0.00094637
-0.000730617
-0.00123467
-0.00199911
-0.00226994
-0.00265516
-0.003073
-0.00331886
-0.00368973
-0.00430462
-0.00501648
-0.005713
-0.00640653
-0.00713603
-0.00785139
-0.00838195
-0.00844364
0.000420896
0.000791516
3.97064e-05
-0.000944381
-0.000766772
-0.00124733
-0.00205688
-0.002321
-0.00266955
-0.00311196
-0.00336979
-0.00373326
-0.00438869
-0.00516328
-0.00589985
-0.0066249
-0.00740407
-0.00817733
-0.00874257
-0.00880097
0.000430384
0.000802204
9.91753e-05
-0.00093878
-0.000809188
-0.00126166
-0.00211335
-0.00238065
-0.00268544
-0.0031483
-0.00342927
-0.00378283
-0.00446713
-0.00530946
-0.00609615
-0.0068481
-0.0076625
-0.00848675
-0.00909127
-0.00915197
0.000443058
0.000809756
0.000155377
-0.000931082
-0.000857183
-0.00127748
-0.00216639
-0.00244818
-0.00270433
-0.0031808
-0.00349614
-0.00384122
-0.0045406
-0.00544964
-0.00629769
-0.00707808
-0.007915
-0.00877843
-0.00942278
-0.00949324
0.000459144
0.000814843
0.00020688
-0.000923355
-0.000913224
-0.00129539
-0.00221419
-0.00252244
-0.00272775
-0.00320808
-0.00356824
-0.00391097
-0.00461143
-0.00557948
-0.00649882
-0.00731507
-0.00816553
-0.0090535
-0.00973303
-0.00981984
0.000478833
0.000818146
0.000252436
-0.00091728
-0.000977639
-0.00131642
-0.00225433
-0.00260157
-0.00275765
-0.00322914
-0.00364212
-0.00399392
-0.00468348
-0.00569641
-0.00669288
-0.0075565
-0.00841722
-0.00931504
-0.0100202
-0.0101265
0.000502036
0.000819827
0.000290792
-0.00091354
-0.00105028
-0.00134223
-0.00228621
-0.00268316
-0.00279618
-0.0032442
-0.00371315
-0.00408984
-0.00476168
-0.00580053
-0.00687322
-0.00779673
-0.00867118
-0.00956714
-0.0102849
-0.0104091
0.000528088
0.000819845
0.000320988
-0.000911725
-0.00113014
-0.00137472
-0.00231
-0.00276472
-0.00284519
-0.00325517
-0.00377618
-0.00419516
-0.0048506
-0.00589536
-0.00703506
-0.00802805
-0.00892549
-0.00981351
-0.0105302
-0.0106656
0.000555749
0.000817297
0.000342906
-0.000911179
-0.0012151
-0.00141539
-0.00232658
-0.00284397
-0.00290575
-0.00326521
-0.00382697
-0.00430361
-0.0049526
-0.00598677
-0.00717679
-0.00824256
-0.00917506
-0.0100559
-0.0107601
-0.0108969
0.000583975
0.000807585
0.000356196
-0.000911707
-0.00130379
-0.00146533
-0.00233707
-0.00291885
-0.00297826
-0.003278
-0.00386324
-0.00440771
-0.00506597
-0.00608042
-0.00729998
-0.00843412
-0.0094125
-0.010293
-0.0109781
-0.0111057
0.000612104
0.000797676
0.000359774
-0.000913266
-0.00139533
-0.00152549
-0.00234285
-0.00298689
-0.00306235
-0.00329753
-0.00388492
-0.00449986
-0.00518545
-0.00617984
-0.00740881
-0.00859954
-0.00962995
-0.0105202
-0.0111858
-0.0112957
0.000638348
0.000783191
0.000354519
-0.000915911
-0.00148865
-0.00159717
-0.00234607
-0.0030451
-0.00315627
-0.00332782
-0.00389399
-0.00457352
-0.0053034
-0.00628515
-0.00750826
-0.00873875
-0.00982103
-0.0107311
-0.0113822
-0.0114698
0.000660382
0.000763473
0.000341167
-0.000923043
-0.00158266
-0.00168133
-0.00234963
-0.00309081
-0.00325639
-0.00337278
-0.00389461
-0.00462382
-0.00541074
-0.00639265
-0.00760171
-0.00885421
-0.00998199
-0.0109187
-0.0115632
-0.0116291
0.00067695
0.000737737
0.000319298
-0.000927557
-0.00167609
-0.00177852
-0.00235712
-0.00312173
-0.00335642
-0.00343468
-0.00389309
-0.00464823
-0.00549771
-0.00649516
-0.00768951
-0.00894971
-0.0101119
-0.0110772
-0.011723
-0.0117714
0.000687538
0.000705582
0.00028713
-0.000934449
-0.00176789
-0.0018891
-0.0023725
-0.00313675
-0.00344853
-0.00351256
-0.0038968
-0.00464819
-0.00555533
-0.00658297
-0.00776902
-0.00902758
-0.0102111
-0.0112022
-0.0118549
-0.0118923
0.000691268
0.000666151
0.000243215
-0.000944703
-0.00185642
-0.00201271
-0.00239978
-0.00313722
-0.00352528
-0.00360094
-0.00391191
-0.00462974
-0.00557748
-0.00664508
-0.00783356
-0.00908612
-0.0102795
-0.0112897
-0.0119529
-0.0119858
0.000686273
0.000617385
0.000186611
-0.000960021
-0.0019399
-0.00214757
-0.00244328
-0.00312682
-0.00358061
-0.00369071
-0.00394043
-0.00460096
-0.00556287
-0.0066708
-0.00787297
-0.0091209
-0.010317
-0.0113382
-0.0120121
-0.0120455
0.000670388
0.000560702
0.000116248
-0.000982997
-0.00201731
-0.00229039
-0.00250682
-0.00311172
-0.00361061
-0.00377159
-0.00397915
-0.00456828
-0.00551463
-0.00665193
-0.00787561
-0.00912495
-0.0103205
-0.0113465
-0.0120274
-0.0120654
0.00064161
0.000494731
3.14534e-05
-0.00101706
-0.00208903
-0.00243704
-0.00259209
-0.00309942
-0.00361504
-0.00383321
-0.0040201
-0.00453427
-0.0054375
-0.00658418
-0.00783009
-0.00908757
-0.0102826
-0.0113108
-0.0119965
-0.0120402
0.000597921
0.000417243
-6.8153e-05
-0.00106624
-0.00215687
-0.00258292
-0.00269772
-0.00309712
-0.00359847
-0.00386801
-0.00405261
-0.00449686
-0.0053353
-0.00646611
-0.00772622
-0.00899637
-0.0101951
-0.0112252
-0.0119148
-0.0119657
0.000537366
0.000328401
-0.000184459
-0.0011339
-0.00222354
-0.00272457
-0.00282042
-0.00311048
-0.00356722
-0.00387247
-0.00406601
-0.00444969
-0.00520914
-0.00629763
-0.00755532
-0.00883731
-0.010045
-0.01108
-0.0117749
-0.0118358
0.000457555
0.000225883
-0.000317537
-0.00122313
-0.00229282
-0.00286034
-0.00295665
-0.00314283
-0.00352819
-0.00384538
-0.0040508
-0.00438373
-0.00505627
-0.00607807
-0.0073101
-0.00859508
-0.00981396
-0.0108593
-0.0115646
-0.0116388
0.000355518
0.000107836
-0.00046674
-0.0013367
-0.00237039
-0.00298965
-0.00310251
-0.00319622
-0.00348882
-0.00378946
-0.00400011
-0.00428907
-0.00487076
-0.00580344
-0.00698261
-0.00825214
-0.00947784
-0.0105377
-0.0112579
-0.0113494
0.000228583
-2.866e-05
-0.000632308
-0.00147543
-0.00246241
-0.00311401
-0.0032532
-0.00327179
-0.0034578
-0.00371174
-0.00391143
-0.00415616
-0.00464267
-0.00546521
-0.00656092
-0.00778822
-0.0090035
-0.010076
-0.0108165
-0.0109402
7.36881e-05
-0.00018663
-0.000815333
-0.00163916
-0.0025741
-0.00323691
-0.00340486
-0.00336809
-0.00344522
-0.00362465
-0.00378833
-0.00397775
-0.00435881
-0.0050481
-0.00602612
-0.00717813
-0.00836355
-0.00943201
-0.0101997
-0.0103756
-0.000114561
-0.00037048
-0.00101557
-0.00182635
-0.00270985
-0.0033636
-0.00355487
-0.00348235
-0.00345905
-0.0035463
-0.00364502
-0.00375412
-0.00400681
-0.00453016
-0.00534903
-0.0063741
-0.00748426
-0.00853921
-0.00934546
-0.00960394
-0.000344224
-0.000586947
-0.00123264
-0.0020355
-0.00287202
-0.00349883
-0.00370385
-0.00361099
-0.00350243
-0.00349354
-0.00351263
-0.00350621
-0.00358673
-0.00389259
-0.00448248
-0.00531315
-0.00628639
-0.0072925
-0.00814781
-0.00854363
-0.000617109
-0.000846153
-0.00146824
-0.00226878
-0.00306082
-0.00364557
-0.0038537
-0.00375111
-0.00357665
-0.00347321
-0.00341383
-0.00330201
-0.00314972
-0.00312499
-0.00334625
-0.00384682
-0.00458769
-0.00546713
-0.00639386
-0.00704812
-0.000919296
-0.00113548
-0.00175632
-0.00253946
-0.00327596
-0.00380539
-0.00400368
-0.00390294
-0.00368872
-0.00348933
-0.00334868
-0.00320313
-0.00291505
-0.00243944
-0.0019048
-0.00153863
-0.00155616
-0.00204853
-0.00287594
-0.00379876
-0.00125337
-0.00146744
-0.00210025
-0.00284976
-0.00351356
-0.00397594
-0.00415132
-0.00406249
-0.00384429
-0.00357971
-0.00327531
-0.0030329
-0.0029785
-0.00272406
-0.00174385
-0.000320571
0.000884751
0.00163992
0.00209942
0.00232845
-0.00165923
-0.00186947
-0.00246872
-0.00317388
-0.0037614
-0.00414914
-0.00429177
-0.00420729
-0.00399834
-0.00378101
-0.0033035
-0.00217407
-0.000830454
0.000365823
0.00133763
0.00221053
0.00311306
0.00400457
0.00468188
0.00482762
-0.00216132
-0.00234545
-0.00286396
-0.00349317
-0.00399848
-0.00430181
-0.00439765
-0.00430266
-0.00379715
-0.00270736
-0.0015169
-0.00048229
0.000367843
0.00112838
0.00196742
0.00294814
0.00401524
0.00502804
0.0057478
0.00582221
-0.00275891
-0.00289521
-0.00332027
-0.00380009
-0.00414537
-0.00436425
-0.00421687
-0.00348866
-0.00256021
-0.00168758
-0.000939708
-0.000247183
0.000539221
0.00149214
0.00259039
0.00377927
0.00497995
0.00604626
0.00674839
0.00674789
-0.00346993
-0.00352692
-0.00384743
-0.00409366
-0.00397572
-0.00364532
-0.00322664
-0.00273002
-0.00217021
-0.00155753
-0.000850796
-1.34333e-05
0.000974258
0.00210782
0.00334267
0.00461975
0.00585571
0.00690969
0.00755988
0.00747604
-0.00430033
-0.00436913
-0.00410854
-0.00377844
-0.0034402
-0.00311931
-0.00281589
-0.00246455
-0.00198313
-0.00133768
-0.000528561
0.000427486
0.00151279
0.00270918
0.0039915
0.00530139
0.00654051
0.0075649
0.00815569
0.00798851
-0.00496706
-0.00487172
-0.00433879
-0.00369951
-0.00318545
-0.00281856
-0.00251107
-0.00215647
-0.00166118
-0.000986005
-0.000139637
0.000856593
0.00197988
0.00320848
0.00450624
0.00581374
0.00703566
0.00802658
0.00856753
0.00833723
-0.00546975
-0.00527322
-0.00461528
-0.00379492
-0.00308419
-0.00257137
-0.00218597
-0.0017935
-0.00129011
-0.000622476
0.000220328
0.00122453
0.0023639
0.00360688
0.00491052
0.00621221
0.00741662
0.00837885
0.00888108
0.00860432
-0.00588988
-0.00562255
-0.00485708
-0.00389548
-0.00302188
-0.00236609
-0.0018852
-0.00145401
-0.000951414
-0.000298624
0.000532663
0.00153455
0.0026794
0.00392992
0.00523672
0.00653295
0.0077221
0.00866021
0.00913144
0.0088191
-0.00623068
-0.00590829
-0.00505736
-0.00398539
-0.00298514
-0.00221296
-0.00164917
-0.00117651
-0.00066465
-2.2583e-05
0.000792695
0.00178467
0.00292943
0.00418331
0.00549152
0.00678312
0.00796021
0.0088797
0.00932768
0.00898959
-0.00648606
-0.00612871
-0.00521276
-0.00406267
-0.00297779
-0.00212229
-0.00149117
-0.000973801
-0.000438103
0.000213791
0.00102923
0.00201627
0.00315413
0.00440276
0.00570548
0.006989
0.00815449
0.00905948
0.00949081
0.00913471
-0.00664221
-0.00627335
-0.00533101
-0.00414268
-0.00301394
-0.00211432
-0.00144061
-0.000886831
-0.000323955
0.000347773
0.00118167
0.0021851
0.00333371
0.00458464
0.00588201
0.00715592
0.00830983
0.00920494
0.00962893
0.00926756
0.0120128
0.0066185
-0.00134699
-0.00692183
-0.00822738
-0.00707865
-0.00563814
-0.0046664
-0.00415463
-0.00393895
-0.00389682
-0.00395876
-0.00408538
-0.00425099
-0.00443578
-0.00462499
-0.00481063
-0.00499054
-0.00516456
-0.00533153
-0.00548938
-0.00563734
-0.00577698
-0.00591133
-0.0060429
-0.00617255
-0.00629997
-0.00642532
-0.0065497
-0.0066742
-0.00679894
-0.00692334
-0.00704716
-0.00717076
-0.00729424
-0.00741685
-0.00753762
-0.0076563
-0.00777323
-0.0078886
-0.00800217
-0.0081138
-0.00822376
-0.0083324
-0.00844
-0.00854657
-0.00865212
-0.00875683
-0.00886117
-0.00896535
-0.00906938
-0.00917297
-0.00927604
-0.00937871
-0.00948128
-0.00958381
-0.00968613
-0.00978796
-0.00988937
-0.00999073
-0.0100922
-0.0101936
-0.0102945
-0.0103951
-0.0104957
-0.0105966
-0.0106974
-0.0107981
-0.0108987
-0.0109994
-0.0111004
-0.0112017
-0.0113034
-0.0114055
-0.0115076
-0.01161
-0.0117128
-0.0118159
-0.0119193
-0.012023
-0.0121267
-0.0122306
-0.0123346
-0.0124388
-0.0125433
-0.0126479
-0.0127529
-0.0128581
-0.0129637
-0.0130696
-0.0131762
-0.0132832
-0.0133911
-0.0134993
-0.0136081
-0.0137174
-0.0138273
-0.0139377
-0.0140484
-0.0141596
-0.0142712
-0.0143831
-0.0144954
-0.0146083
-0.0147217
-0.0148357
-0.0149502
-0.0150654
-0.015181
-0.0152971
-0.0154136
-0.0155308
-0.0156485
-0.0157666
-0.0158855
-0.0160051
-0.0161256
-0.0162468
-0.016369
-0.0164916
-0.0166154
-0.0167396
-0.0168648
-0.0169905
-0.017117
-0.0172444
-0.0173725
-0.0175017
-0.0176315
-0.0177625
-0.0178936
-0.0180258
-0.0181581
-0.0182917
-0.0184256
-0.0185608
-0.0186966
-0.0188333
-0.018971
-0.0191091
-0.0192483
-0.0193875
-0.0195281
-0.0196689
-0.0198115
-0.0199543
-0.0200984
-0.0202429
-0.020388
-0.0205341
-0.0206806
-0.0208289
-0.0209773
-0.0211276
-0.021278
-0.0214295
-0.0215814
-0.0217342
-0.0218889
-0.0220434
-0.0221998
-0.0223555
-0.0225135
-0.0226709
-0.0228299
-0.0229896
-0.0231495
-0.0233114
-0.0234718
-0.023635
-0.0237965
-0.0239611
-0.0241251
-0.0242897
-0.0244556
-0.0246202
-0.0247883
-0.0249539
-0.0251229
-0.0252901
-0.025459
-0.0256288
-0.0257969
-0.0259691
-0.0261376
-0.0263112
-0.0264822
-0.0266544
-0.0268289
-0.0269989
-0.0271763
-0.0273484
-0.0275238
-0.0276988
-0.0278706
-0.0280481
-0.0282199
-0.028398
-0.0285531
-0.0287098
0.011097
0.00641613
-0.00127318
-0.00678877
-0.00814615
-0.00703978
-0.00561379
-0.00464904
-0.00414194
-0.00392918
-0.00388884
-0.00395195
-0.00407942
-0.0042457
-0.00443105
-0.00462073
-0.00480678
-0.00498703
-0.00516137
-0.00532863
-0.00548673
-0.00563492
-0.00577475
-0.00590928
-0.00604101
-0.0061708
-0.00629833
-0.00642379
-0.00654826
-0.00667285
-0.00679765
-0.00692213
-0.007046
-0.00716965
-0.00729319
-0.00741584
-0.00753665
-0.00765537
-0.00777235
-0.00788775
-0.00800135
-0.00811301
-0.008223
-0.00833167
-0.00843929
-0.00854589
-0.00865146
-0.0087562
-0.00886055
-0.00896476
-0.00906881
-0.00917242
-0.00927551
-0.00937819
-0.00948078
-0.00958333
-0.00968566
-0.00978751
-0.00988893
-0.00999031
-0.0100918
-0.0101932
-0.0102942
-0.0103948
-0.0104953
-0.0105962
-0.0106971
-0.0107978
-0.0108984
-0.0109991
-0.0111001
-0.0112015
-0.0113031
-0.0114052
-0.0115073
-0.0116098
-0.0117125
-0.0118157
-0.0119191
-0.0120228
-0.0121265
-0.0122304
-0.0123344
-0.0124386
-0.0125431
-0.0126477
-0.0127527
-0.0128579
-0.0129635
-0.0130694
-0.013176
-0.0132831
-0.0133909
-0.0134991
-0.013608
-0.0137172
-0.0138272
-0.0139375
-0.0140483
-0.0141595
-0.014271
-0.014383
-0.0144952
-0.0146081
-0.0147216
-0.0148356
-0.0149501
-0.0150653
-0.0151809
-0.015297
-0.0154135
-0.0155307
-0.0156483
-0.0157665
-0.0158854
-0.016005
-0.0161255
-0.0162467
-0.0163689
-0.0164915
-0.0166153
-0.0167395
-0.0168647
-0.0169904
-0.0171169
-0.0172443
-0.0173724
-0.0175016
-0.0176314
-0.0177624
-0.0178935
-0.0180257
-0.018158
-0.0182916
-0.0184256
-0.0185607
-0.0186966
-0.0188332
-0.0189709
-0.019109
-0.0192483
-0.0193874
-0.019528
-0.0196689
-0.0198115
-0.0199542
-0.0200983
-0.0202428
-0.020388
-0.020534
-0.0206806
-0.0208288
-0.0209773
-0.0211275
-0.021278
-0.0214295
-0.0215814
-0.0217342
-0.0218889
-0.0220433
-0.0221997
-0.0223554
-0.0225134
-0.0226709
-0.0228299
-0.0229895
-0.0231495
-0.0233113
-0.0234717
-0.0236349
-0.0237965
-0.0239611
-0.024125
-0.0242896
-0.0244556
-0.0246202
-0.0247883
-0.0249538
-0.0251228
-0.0252901
-0.0254589
-0.0256287
-0.0257969
-0.0259691
-0.0261375
-0.0263112
-0.0264821
-0.0266544
-0.0268289
-0.0269989
-0.0271763
-0.0273484
-0.0275238
-0.0276987
-0.0278706
-0.0280481
-0.0282199
-0.028398
-0.0285531
-0.0287098
0.010168
0.00622405
-0.00110043
-0.00653492
-0.00799804
-0.00698068
-0.00558272
-0.00462554
-0.00412346
-0.00391497
-0.00387784
-0.0039432
-0.00407221
-0.00423957
-0.00442569
-0.00461599
-0.00480253
-0.00498321
-0.00515791
-0.00532547
-0.00548386
-0.0056323
-0.00577236
-0.00590709
-0.00603901
-0.00616895
-0.00629663
-0.00642221
-0.00654678
-0.00667146
-0.00679636
-0.00692091
-0.00704485
-0.00716856
-0.00729214
-0.00741485
-0.00753571
-0.00765447
-0.00777148
-0.00788692
-0.00800056
-0.00811224
-0.00822226
-0.00833096
-0.00843861
-0.00854523
-0.00865082
-0.00875558
-0.00885996
-0.00896418
-0.00906825
-0.00917188
-0.00927499
-0.00937769
-0.00948029
-0.00958286
-0.00968521
-0.00978707
-0.00988851
-0.0099899
-0.0100914
-0.0101928
-0.0102938
-0.0103944
-0.010495
-0.0105959
-0.0106967
-0.0107975
-0.0108981
-0.0109988
-0.0110998
-0.0112012
-0.0113029
-0.0114049
-0.0115071
-0.0116095
-0.0117123
-0.0118154
-0.0119189
-0.0120225
-0.0121263
-0.0122301
-0.0123342
-0.0124384
-0.0125429
-0.0126475
-0.0127525
-0.0128577
-0.0129633
-0.0130693
-0.0131758
-0.0132829
-0.0133907
-0.013499
-0.0136078
-0.0137171
-0.013827
-0.0139374
-0.0140482
-0.0141593
-0.0142709
-0.0143828
-0.0144951
-0.014608
-0.0147214
-0.0148355
-0.01495
-0.0150652
-0.0151807
-0.0152969
-0.0154134
-0.0155306
-0.0156482
-0.0157664
-0.0158853
-0.0160049
-0.0161254
-0.0162466
-0.0163688
-0.0164914
-0.0166152
-0.0167394
-0.0168646
-0.0169903
-0.0171169
-0.0172442
-0.0173723
-0.0175016
-0.0176314
-0.0177623
-0.0178934
-0.0180256
-0.018158
-0.0182915
-0.0184255
-0.0185607
-0.0186965
-0.0188332
-0.0189709
-0.0191089
-0.0192482
-0.0193873
-0.019528
-0.0196688
-0.0198114
-0.0199542
-0.0200982
-0.0202428
-0.0203879
-0.020534
-0.0206805
-0.0208288
-0.0209772
-0.0211275
-0.0212779
-0.0214294
-0.0215814
-0.0217341
-0.0218888
-0.0220433
-0.0221997
-0.0223554
-0.0225134
-0.0226708
-0.0228298
-0.0229895
-0.0231494
-0.0233113
-0.0234717
-0.0236349
-0.0237964
-0.0239611
-0.024125
-0.0242896
-0.0244555
-0.0246202
-0.0247883
-0.0249538
-0.0251228
-0.0252901
-0.0254589
-0.0256287
-0.0257969
-0.0259691
-0.0261375
-0.0263112
-0.0264821
-0.0266543
-0.0268289
-0.0269989
-0.0271763
-0.0273483
-0.0275238
-0.0276987
-0.0278706
-0.0280481
-0.0282198
-0.028398
-0.0285531
-0.0287098
0.0093035
0.00605419
-0.000857654
-0.00619945
-0.00779298
-0.00689715
-0.00553909
-0.00459091
-0.00409526
-0.00389348
-0.00386187
-0.00393115
-0.00406274
-0.00423175
-0.00441897
-0.00461006
-0.00479725
-0.00497846
-0.0051536
-0.00532153
-0.00548023
-0.00562899
-0.00576936
-0.00590438
-0.00603656
-0.00616673
-0.0062946
-0.00642035
-0.00654508
-0.00666989
-0.0067949
-0.00691956
-0.00704358
-0.00716737
-0.00729103
-0.00741379
-0.00753471
-0.00765352
-0.00777057
-0.00788606
-0.00799973
-0.00811145
-0.0082215
-0.00833023
-0.0084379
-0.00854455
-0.00865016
-0.00875495
-0.00885934
-0.00896359
-0.00906768
-0.00917133
-0.00927446
-0.00937718
-0.0094798
-0.00958238
-0.00968475
-0.00978662
-0.00988808
-0.00998948
-0.010091
-0.0101924
-0.0102934
-0.010394
-0.0104946
-0.0105955
-0.0106964
-0.0107972
-0.0108978
-0.0109985
-0.0110995
-0.0112009
-0.0113026
-0.0114046
-0.0115068
-0.0116093
-0.011712
-0.0118152
-0.0119186
-0.0120223
-0.0121261
-0.0122299
-0.012334
-0.0124382
-0.0125427
-0.0126473
-0.0127523
-0.0128575
-0.0129632
-0.0130691
-0.0131757
-0.0132827
-0.0133906
-0.0134988
-0.0136077
-0.0137169
-0.0138269
-0.0139372
-0.014048
-0.0141592
-0.0142708
-0.0143827
-0.014495
-0.0146079
-0.0147213
-0.0148354
-0.0149499
-0.0150651
-0.0151806
-0.0152968
-0.0154133
-0.0155305
-0.0156481
-0.0157663
-0.0158852
-0.0160048
-0.0161254
-0.0162465
-0.0163687
-0.0164914
-0.0166151
-0.0167393
-0.0168645
-0.0169902
-0.0171168
-0.0172442
-0.0173723
-0.0175015
-0.0176313
-0.0177622
-0.0178933
-0.0180256
-0.0181579
-0.0182915
-0.0184254
-0.0185606
-0.0186965
-0.0188331
-0.0189708
-0.0191089
-0.0192481
-0.0193873
-0.0195279
-0.0196688
-0.0198114
-0.0199541
-0.0200982
-0.0202427
-0.0203879
-0.0205339
-0.0206805
-0.0208287
-0.0209772
-0.0211274
-0.0212779
-0.0214294
-0.0215813
-0.0217341
-0.0218888
-0.0220432
-0.0221997
-0.0223553
-0.0225134
-0.0226708
-0.0228298
-0.0229895
-0.0231494
-0.0233113
-0.0234717
-0.0236349
-0.0237964
-0.023961
-0.024125
-0.0242896
-0.0244555
-0.0246201
-0.0247883
-0.0249538
-0.0251228
-0.02529
-0.0254589
-0.0256287
-0.0257969
-0.0259691
-0.0261375
-0.0263112
-0.0264821
-0.0266543
-0.0268289
-0.0269989
-0.0271763
-0.0273483
-0.0275238
-0.0276987
-0.0278705
-0.0280481
-0.0282198
-0.028398
-0.0285531
-0.0287098
0.00848261
0.00586468
-0.000598922
-0.0058362
-0.00756419
-0.00680291
-0.00548953
-0.00454834
-0.00405811
-0.00386421
-0.0038399
-0.0039146
-0.00404985
-0.00422121
-0.00440995
-0.00460213
-0.00479018
-0.00497211
-0.0051478
-0.00531615
-0.00547522
-0.00562435
-0.00576515
-0.00590059
-0.00603314
-0.00616365
-0.00629182
-0.00641783
-0.0065428
-0.00666782
-0.00679302
-0.00691783
-0.007042
-0.00716591
-0.00728967
-0.00741251
-0.0075335
-0.00765238
-0.0077695
-0.00788504
-0.00799877
-0.00811054
-0.00822063
-0.00832939
-0.0084371
-0.00854377
-0.00864942
-0.00875423
-0.00885865
-0.00896293
-0.00906704
-0.00917071
-0.00927385
-0.0093766
-0.00947924
-0.00958184
-0.00968423
-0.00978612
-0.00988759
-0.00998901
-0.0100905
-0.010192
-0.010293
-0.0103936
-0.0104943
-0.0105952
-0.010696
-0.0107968
-0.0108974
-0.0109982
-0.0110992
-0.0112006
-0.0113023
-0.0114044
-0.0115065
-0.011609
-0.0117118
-0.0118149
-0.0119184
-0.0120221
-0.0121258
-0.0122297
-0.0123338
-0.012438
-0.0125425
-0.0126471
-0.0127521
-0.0128573
-0.012963
-0.0130689
-0.0131755
-0.0132826
-0.0133904
-0.0134986
-0.0136075
-0.0137168
-0.0138267
-0.0139371
-0.0140479
-0.0141591
-0.0142706
-0.0143826