/*--------------------------------*- C++ -*----------------------------------*\
| =========                 |                                                 |
| \\      /  F ield         | OpenFOAM: The Open Source CFD Toolbox           |
|  \\    /   O peration     | Version:  v2012                                 |
|   \\  /    A nd           | Website:  www.openfoam.com                      |
|    \\/     M anipulation  |                                                 |
\*---------------------------------------------------------------------------*/
FoamFile
{
    version     2.0;
    format      ascii;
    class       surfaceScalarField;
    location    "2.7";
    object      phi;
}
// * * * * * * * * * * * * * * * * * * * * * * * * * * * * * * * * * * * * * //

dimensions      [0 3 -1 0 0 0 0];
oriented        oriented;


internalField   nonuniform List<scalar> 
34900
(
1.17676e-06
-2.0317e-07
1.1727e-06
2.4132e-07
1.18119e-06
1.4563e-07
1.16729e-06
7.88216e-08
1.17016e-06
8.73451e-09
1.15886e-06
-5.01955e-08
1.16338e-06
3.7217e-08
1.15502e-06
-1.87384e-08
1.15969e-06
4.18844e-08
1.1516e-06
-1.267e-08
1.15653e-06
3.42679e-08
1.14809e-06
-1.97421e-08
1.15416e-06
4.13458e-08
1.14402e-06
-3.90381e-08
1.15143e-06
5.49338e-08
1.13727e-06
-7.24423e-08
1.14667e-06
7.44443e-08
1.12652e-06
-9.88856e-08
1.135e-06
9.07254e-08
-8.63757e-08
1.08459e-06
1.23272e-06
-2.11632e-07
1.23113e-06
2.42917e-07
1.23792e-06
1.38833e-07
1.22612e-06
9.06217e-08
1.22632e-06
8.53571e-09
1.21715e-06
-4.10222e-08
1.21825e-06
3.61191e-08
1.21342e-06
-1.3912e-08
1.21384e-06
4.14617e-08
1.21077e-06
-9.5915e-09
1.20984e-06
3.51956e-08
1.20844e-06
-1.83422e-08
1.20621e-06
4.35738e-08
1.20647e-06
-3.93014e-08
1.20133e-06
6.00762e-08
1.20274e-06
-7.38511e-08
1.19304e-06
8.41485e-08
1.1961e-06
-1.01955e-07
1.17652e-06
1.1031e-07
-7.92674e-08
1.16941e-06
1.28967e-06
-2.18519e-07
1.29351e-06
2.39079e-07
1.29604e-06
1.36302e-07
1.2898e-06
9.68622e-08
1.28486e-06
1.3474e-08
1.28024e-06
-3.64036e-08
1.27558e-06
4.0783e-08
1.27619e-06
-1.4525e-08
1.27075e-06
4.68978e-08
1.27367e-06
-1.25051e-08
1.26678e-06
4.20824e-08
1.27134e-06
-2.29052e-08
1.26377e-06
5.11472e-08
1.26891e-06
-4.44436e-08
1.26081e-06
6.81765e-08
1.26419e-06
-7.72241e-08
1.25712e-06
9.12117e-08
1.25601e-06
-1.00845e-07
1.24965e-06
1.1667e-07
-5.91103e-08
1.2295e-06
1.34761e-06
-2.22025e-07
1.35683e-06
2.29855e-07
1.35539e-06
1.3774e-07
1.35531e-06
9.69473e-08
1.34574e-06
2.30455e-08
1.34512e-06
-3.57847e-08
1.33616e-06
4.97404e-08
1.34002e-06
-1.83867e-08
1.33193e-06
5.49905e-08
1.33684e-06
-1.74131e-08
1.32916e-06
4.97588e-08
1.33383e-06
-2.7572e-08
1.32782e-06
5.7158e-08
1.33096e-06
-4.75873e-08
1.32688e-06
7.22562e-08
1.32658e-06
-7.69218e-08
1.32526e-06
9.2535e-08
1.31927e-06
-9.486e-08
1.31903e-06
1.1691e-07
-3.60246e-08
1.29595e-06
1.40752e-06
-2.21192e-07
1.41978e-06
2.17596e-07
1.41634e-06
1.41179e-07
1.42085e-06
9.24437e-08
1.40941e-06
3.4479e-08
1.41041e-06
-3.67834e-08
1.40061e-06
5.95395e-08
1.40444e-06
-2.22099e-08
1.39757e-06
6.18539e-08
1.40115e-06
-2.09962e-08
1.39609e-06
5.48227e-08
1.39852e-06
-2.99985e-08
1.39571e-06
5.99629e-08
1.39645e-06
-4.83255e-08
1.39532e-06
7.33919e-08
1.39308e-06
-7.46888e-08
1.39386e-06
9.17534e-08
1.38604e-06
-8.70378e-08
1.38754e-06
1.15409e-07
-1.29069e-08
1.36442e-06
1.47092e-06
-2.16438e-07
1.48302e-06
2.05498e-07
1.48009e-06
1.44106e-07
1.48674e-06
8.57967e-08
1.47658e-06
4.46376e-08
1.47711e-06
-3.73173e-08
1.46912e-06
6.75385e-08
1.47123e-06
-2.43241e-08
1.46707e-06
6.60126e-08
1.46879e-06
-2.2719e-08
1.46636e-06
5.72579e-08
1.46726e-06
-3.08961e-08
1.46637e-06
6.08455e-08
1.46611e-06
-4.80642e-08
1.4662e-06
7.33061e-08
1.46321e-06
-7.16974e-08
1.46495e-06
9.00109e-08
1.45577e-06
-7.78627e-08
1.45864e-06
1.12543e-07
1.00663e-08
1.43567e-06
1.53907e-06
-2.09295e-07
1.54864e-06
1.95935e-07
1.54786e-06
1.4488e-07
1.55474e-06
7.89181e-08
1.54758e-06
5.17947e-08
1.54703e-06
-3.67674e-08
1.54153e-06
7.30439e-08
1.5421e-06
-2.48944e-08
1.5401e-06
6.8012e-08
1.54081e-06
-2.34271e-08
1.53989e-06
5.81737e-08
1.54029e-06
-3.12914e-08
1.54029e-06
6.08398e-08
1.53969e-06
-4.74627e-08
1.54048e-06
7.25198e-08
1.53683e-06
-6.80506e-08
1.53949e-06
8.73533e-08
1.52891e-06
-6.7286e-08
1.53293e-06
1.08527e-07
3.24502e-08
1.51054e-06
1.61238e-06
-2.0155e-07
1.61874e-06
1.89577e-07
1.62029e-06
1.43333e-07
1.62654e-06
7.26646e-08
1.6224e-06
5.59386e-08
1.62127e-06
-3.56361e-08
1.61776e-06
7.6553e-08
1.61761e-06
-2.4751e-08
1.61681e-06
6.88117e-08
1.61724e-06
-2.38567e-08
1.61708e-06
5.83341e-08
1.6174e-06
-3.16112e-08
1.61793e-06
6.03141e-08
1.61706e-06
-4.65906e-08
1.61849e-06
7.10908e-08
1.61406e-06
-6.36212e-08
1.61762e-06
8.37885e-08
1.60573e-06
-5.53895e-08
1.61051e-06
1.03742e-07
5.36883e-08
1.58927e-06
1.69046e-06
-1.9444e-07
1.69439e-06
1.8565e-07
1.69741e-06
1.4031e-07
1.70293e-06
6.71463e-08
1.7009e-06
5.79678e-08
1.69992e-06
-3.46551e-08
1.69775e-06
7.87209e-08
1.69753e-06
-2.45271e-08
1.69733e-06
6.90114e-08
1.69776e-06
-2.42839e-08
1.69804e-06
5.80562e-08
1.69831e-06
-3.18833e-08
1.69927e-06
5.93472e-08
1.69802e-06
-4.53313e-08
1.70012e-06
6.89886e-08
1.69478e-06
-5.82851e-08
1.69919e-06
7.93779e-08
1.68618e-06
-4.23773e-08
1.69129e-06
9.86314e-08
7.32324e-08
1.67175e-06
1.77269e-06
-1.8841e-07
1.77551e-06
1.82836e-07
1.779e-06
1.36815e-07
1.78393e-06
6.22194e-08
1.78304e-06
5.88513e-08
1.78264e-06
-3.42494e-08
1.7814e-06
7.99617e-08
1.78136e-06
-2.44936e-08
1.78152e-06
6.88541e-08
1.78195e-06
-2.47133e-08
1.78257e-06
5.74355e-08
1.78268e-06
-3.1991e-08
1.78411e-06
5.79217e-08
1.78231e-06
-4.35326e-08
1.78513e-06
6.61676e-08
1.77882e-06
-5.19742e-08
1.78394e-06
7.42497e-08
1.77014e-06
-2.85753e-08
1.77509e-06
9.36864e-08
9.05793e-08
1.75774e-06
1.8587e-06
-1.83356e-07
1.86147e-06
1.80064e-07
1.8648e-06
1.33481e-07
1.86928e-06
5.7741e-08
1.86887e-06
5.92615e-08
1.86911e-06
-3.44909e-08
1.86857e-06
8.04966e-08
1.86877e-06
-2.46917e-08
1.86922e-06
6.84035e-08
1.86957e-06
-2.50611e-08
1.87053e-06
5.64738e-08
1.87033e-06
-3.17877e-08
1.87227e-06
5.5982e-08
1.8698e-06
-4.10624e-08
1.87337e-06
6.26005e-08
1.86611e-06
-4.47161e-08
1.87173e-06
6.863e-08
1.85758e-06
-1.44284e-08
1.86184e-06
8.94255e-08
1.0533e-07
1.84709e-06
1.94847e-06
-1.78987e-07
1.95174e-06
1.76797e-07
1.95469e-06
1.30527e-07
1.95884e-06
5.35963e-08
1.95853e-06
5.95627e-08
1.9593e-06
-3.52573e-08
1.95933e-06
8.04665e-08
1.9597e-06
-2.50603e-08
1.96045e-06
6.7652e-08
1.96062e-06
-2.52307e-08
1.96197e-06
5.51257e-08
1.96132e-06
-3.1139e-08
1.96384e-06
5.34604e-08
1.96062e-06
-3.78384e-08
1.96491e-06
5.8312e-08
1.95684e-06
-3.66517e-08
1.96263e-06
6.28446e-08
1.94864e-06
-4.43335e-10
1.95176e-06
8.631e-08
1.17282e-07
1.93981e-06
2.04224e-06
-1.75037e-07
2.04612e-06
1.72917e-07
2.04872e-06
1.27928e-07
2.05264e-06
4.96707e-08
2.0523e-06
5.9908e-08
2.05342e-06
-3.63746e-08
2.05391e-06
7.99739e-08
2.05435e-06
-2.54977e-08
2.05544e-06
6.65607e-08
2.05534e-06
-2.51294e-08
2.05714e-06
5.33184e-08
2.05594e-06
-2.99378e-08
2.0591e-06
5.02977e-08
2.05511e-06
-3.38442e-08
2.06002e-06
5.3403e-08
2.0514e-06
-2.80344e-08
2.05695e-06
5.73011e-08
2.04362e-06
1.28777e-08
2.04528e-06
8.46581e-08
1.26478e-07
2.03608e-06
2.1403e-06
-1.71334e-07
2.1447e-06
1.68517e-07
2.14705e-06
1.25576e-07
2.15087e-06
4.58501e-08
2.15045e-06
6.03258e-08
2.15176e-06
-3.76826e-08
2.15265e-06
7.90809e-08
2.15304e-06
-2.58877e-08
2.15453e-06
6.50713e-08
2.15407e-06
-2.46678e-08
2.15642e-06
5.09665e-08
2.1546e-06
-2.81106e-08
2.15843e-06
4.64629e-08
2.15373e-06
-2.91407e-08
2.15907e-06
4.80593e-08
2.15024e-06
-1.92005e-08
2.15512e-06
5.24204e-08
2.14286e-06
2.51342e-08
2.14293e-06
8.45919e-08
1.33194e-07
2.13621e-06
2.24294e-06
-1.67781e-07
2.24771e-06
1.63747e-07
2.24992e-06
1.23362e-07
2.25373e-06
4.20413e-08
2.25328e-06
6.07739e-08
2.25465e-06
-3.90464e-08
2.25592e-06
7.78039e-08
2.25614e-06
-2.61098e-08
2.2581e-06
6.31106e-08
2.2572e-06
-2.37605e-08
2.26018e-06
4.7989e-08
2.25769e-06
-2.56243e-08
2.26218e-06
4.19752e-08
2.25691e-06
-2.3874e-08
2.26243e-06
4.25438e-08
2.25375e-06
-1.05234e-08
2.25757e-06
4.8594e-08
2.24667e-06
3.60359e-08
2.24521e-06
8.6057e-08
1.37861e-07
2.24054e-06
2.35043e-06
-1.64332e-07
2.35542e-06
1.58757e-07
2.3576e-06
1.21184e-07
2.36145e-06
3.81892e-08
2.36105e-06
6.11714e-08
2.36235e-06
-4.03472e-08
2.36404e-06
7.61159e-08
2.36397e-06
-2.60435e-08
2.36649e-06
6.05964e-08
2.36506e-06
-2.23317e-08
2.36872e-06
4.43276e-08
2.36559e-06
-2.24979e-08
2.37065e-06
3.69232e-08
2.36505e-06
-1.82773e-08
2.37041e-06
3.71783e-08
2.36225e-06
-2.35775e-09
2.36474e-06
4.61047e-08
2.35532e-06
4.54567e-08
2.35254e-06
8.88356e-08
1.40991e-07
2.34941e-06
2.46303e-06
-1.60971e-07
2.46811e-06
1.5368e-07
2.47035e-06
1.18944e-07
2.47426e-06
3.42837e-08
2.47401e-06
6.14144e-08
2.47513e-06
-4.14691e-08
2.4773e-06
7.39547e-08
2.47682e-06
-2.55721e-08
2.47997e-06
5.74476e-08
2.47797e-06
-2.0327e-08
2.48233e-06
3.99668e-08
2.47865e-06
-1.88177e-08
2.48409e-06
3.14788e-08
2.47847e-06
-1.26579e-08
2.48335e-06
3.23057e-08
2.47598e-06
5.01192e-09
2.477e-06
4.50788e-08
2.469e-06
5.34602e-08
2.46526e-06
9.25702e-08
1.43103e-07
2.46315e-06
2.58102e-06
-1.57699e-07
2.58606e-06
1.48641e-07
2.58847e-06
1.1654e-07
2.59239e-06
3.03572e-08
2.59242e-06
6.13835e-08
2.59325e-06
-4.22936e-08
2.59597e-06
7.12344e-08
2.59498e-06
-2.45887e-08
2.59883e-06
5.35984e-08
2.59624e-06
-1.77305e-08
2.60125e-06
3.49558e-08
2.59718e-06
-1.4752e-08
2.60277e-06
2.58913e-08
2.59747e-06
-7.35482e-09
2.60154e-06
2.82287e-08
2.59514e-06
1.14199e-08
2.59476e-06
4.54586e-08
2.58794e-06
6.02818e-08
2.58367e-06
9.68369e-08
1.4466e-07
2.58211e-06
2.70466e-06
-1.54532e-07
2.70955e-06
1.43751e-07
2.71223e-06
1.13859e-07
2.71611e-06
2.64788e-08
2.71655e-06
6.09476e-08
2.71695e-06
-4.2699e-08
2.72033e-06
6.78592e-08
2.71875e-06
-2.30083e-08
2.72333e-06
4.90176e-08
2.72018e-06
-1.45869e-08
2.72571e-06
2.94251e-08
2.72151e-06
-1.05489e-08
2.72695e-06
2.04534e-08
2.72228e-06
-2.68509e-09
2.72535e-06
2.51621e-08
2.71993e-06
1.68412e-08
2.71835e-06
4.70361e-08
2.71239e-06
6.62386e-08
2.70798e-06
1.01247e-07
1.4601e-07
2.70663e-06
2.83423e-06
-1.51494e-07
2.83886e-06
1.39125e-07
2.84194e-06
1.10775e-07
2.84568e-06
2.27438e-08
2.84665e-06
5.99694e-08
2.84652e-06
-4.25686e-08
2.85064e-06
6.3742e-08
2.84842e-06
-2.07846e-08
2.8537e-06
4.37309e-08
2.85014e-06
-1.10204e-08
2.85597e-06
2.35908e-08
2.85194e-06
-6.51753e-09
2.85693e-06
1.5461e-08
2.85314e-06
1.10549e-09
2.85512e-06
2.3181e-08
2.85055e-06
2.14161e-08
2.84807e-06
4.95178e-08
2.84268e-06
7.16251e-08
2.8384e-06
1.05525e-07
1.47349e-07
2.83706e-06
2.97001e-06
-1.48612e-07
2.97426e-06
1.34873e-07
2.97789e-06
1.07151e-07
2.98137e-06
1.92629e-08
2.98303e-06
5.83137e-08
2.98226e-06
-4.18029e-08
2.98718e-06
5.88259e-08
2.98432e-06
-1.79317e-08
2.99021e-06
3.7842e-08
2.98644e-06
-7.24497e-09
2.99228e-06
1.77451e-08
2.98877e-06
-3.00256e-09
2.99305e-06
1.11811e-08
2.99028e-06
3.87611e-09
2.99127e-06
2.21901e-08
2.98726e-06
2.54188e-08
2.98417e-06
5.26113e-08
2.97912e-06
7.6678e-08
2.97514e-06
1.09498e-07
1.48758e-07
2.97374e-06
3.11231e-06
-1.45912e-07
3.11607e-06
1.31111e-07
3.12038e-06
1.0284e-07
3.12349e-06
1.61494e-08
3.12594e-06
5.5861e-08
3.12448e-06
-4.03384e-08
3.1302e-06
5.31086e-08
3.12681e-06
-1.45438e-08
3.1331e-06
3.15469e-08
3.12942e-06
-3.56376e-09
3.13493e-06
1.22345e-08
3.13228e-06
-3.48012e-10
3.13564e-06
7.82372e-09
3.13393e-06
5.58628e-09
3.13414e-06
2.19767e-08
3.13046e-06
2.90999e-08
3.12693e-06
5.61365e-08
3.12193e-06
8.16779e-08
3.11849e-06
1.12942e-07
1.50342e-07
3.11691e-06
3.26142e-06
-1.4342e-07
3.26458e-06
1.27952e-07
3.26972e-06
9.77006e-08
3.27237e-06
1.35005e-08
3.2757e-06
5.25287e-08
3.27353e-06
-3.8173e-08
3.27997e-06
4.66702e-08
3.27625e-06
-1.08191e-08
3.28265e-06
2.51464e-08
3.27944e-06
-3.59247e-10
3.28425e-06
7.43197e-09
3.28276e-06
1.13701e-09
3.28504e-06
5.54777e-09
3.28441e-06
6.20815e-09
3.28406e-06
2.23284e-08
3.28073e-06
3.24274e-08
3.27673e-06
6.01383e-08
3.2712e-06
8.7208e-08
3.26865e-06
1.15491e-07
1.52301e-07
3.2667e-06
3.41767e-06
-1.41158e-07
3.42012e-06
1.25499e-07
3.42621e-06
9.16095e-08
3.42834e-06
1.13729e-08
3.43257e-06
4.82976e-08
3.42979e-06
-3.5393e-08
3.43677e-06
3.96955e-08
3.43301e-06
-7.06546e-09
3.43914e-06
1.9023e-08
3.4368e-06
1.9734e-09
3.4406e-06
3.63252e-09
3.44043e-06
1.30767e-09
3.44162e-06
4.35742e-09
3.44204e-06
5.78824e-09
3.4414e-06
2.29725e-08
3.4391e-06
3.47289e-08
3.43465e-06
6.45892e-08
3.4273e-06
9.45592e-08
3.42438e-06
1.18405e-07
1.53373e-07
3.42331e-06
3.5814e-06
-1.39144e-07
3.58305e-06
1.23844e-07
3.59019e-06
8.44713e-08
3.59179e-06
9.77515e-09
3.59687e-06
4.32125e-08
3.59364e-06
-3.2156e-08
3.60092e-06
3.24132e-08
3.59741e-06
-3.55715e-09
3.60303e-06
1.34e-08
3.60164e-06
3.36648e-09
3.60463e-06
6.4292e-10
3.60529e-06
6.48269e-10
3.60611e-06
3.53211e-09
3.60686e-06
5.0425e-09
3.60694e-06
2.28957e-08
3.60666e-06
3.50042e-08
3.60722e-06
6.40338e-08
3.60234e-06
9.944e-08
3.58527e-06
1.35467e-07
1.49254e-07
3.58939e-06
3.75295e-06
-1.37387e-07
3.75374e-06
1.2305e-07
3.76197e-06
7.6246e-08
3.76311e-06
8.63507e-09
3.7689e-06
3.74184e-08
3.76548e-06
-2.8736e-08
3.77274e-06
2.51515e-08
3.76979e-06
-6.06322e-10
3.77477e-06
8.42431e-09
3.77414e-06
3.99799e-09
3.77686e-06
-2.08557e-09
3.77751e-06
1.26404e-12
3.77902e-06
2.02114e-09
3.77928e-06
4.78475e-09
3.78146e-06
2.07114e-08
3.78249e-06
3.39836e-08
3.78573e-06
6.07927e-08
3.79331e-06
9.18521e-08
3.80595e-06
1.22829e-07
1.75339e-07
3.77987e-06
3.93268e-06
-1.35881e-07
3.9326e-06
1.23128e-07
3.94185e-06
6.70026e-08
3.94275e-06
7.73102e-09
3.94892e-06
3.12459e-08
3.94583e-06
-2.56416e-08
3.95249e-06
1.84867e-08
3.95067e-06
1.21706e-09
3.95453e-06
4.56164e-09
3.95498e-06
3.55577e-09
3.95716e-06
-4.26491e-09
3.95817e-06
-1.00859e-09
3.95987e-06
3.16037e-10
3.96057e-06
4.08138e-09
3.95994e-06
2.13405e-08
3.95161e-06
4.2315e-08
3.9456e-06
6.68076e-08
3.93886e-06
9.85905e-08
3.92831e-06
1.33384e-07
1.65919e-07
3.93773e-06
4.12098e-06
-1.34609e-07
4.12007e-06
1.24032e-07
4.13016e-06
5.69187e-08
4.13116e-06
6.72538e-09
4.13731e-06
2.51043e-08
4.13507e-06
-2.34056e-08
4.14066e-06
1.28961e-08
4.14029e-06
1.58482e-09
4.14289e-06
1.96023e-09
4.1444e-06
2.04467e-09
4.14583e-06
-5.69489e-09
4.14753e-06
-2.70677e-09
4.14691e-06
9.40054e-10
4.14344e-06
7.55003e-09
4.13689e-06
2.78888e-08
4.13241e-06
4.67925e-08
4.12685e-06
7.2369e-08
4.12151e-06
1.03931e-07
4.11797e-06
1.3693e-07
1.62623e-07
4.12126e-06
4.31823e-06
-1.33534e-07
4.31662e-06
1.25644e-07
4.32723e-06
4.63037e-08
4.32878e-06
5.1755e-09
4.33448e-06
1.94097e-08
4.33351e-06
-2.24397e-08
4.33787e-06
8.53273e-09
4.33876e-06
7.01705e-10
4.3406e-06
1.17608e-10
4.34237e-06
2.68901e-10
4.34314e-06
-6.46262e-09
4.34235e-06
-1.91394e-09
4.33758e-06
5.71039e-09
4.33316e-06
1.1967e-08
4.3289e-06
3.21535e-08
4.32399e-06
5.1695e-08
4.31918e-06
7.71818e-08
4.31558e-06
1.07533e-07
4.31482e-06
1.37692e-07
1.61086e-07
4.31636e-06
4.52484e-06
-1.32599e-07
4.52274e-06
1.27746e-07
4.53339e-06
3.56524e-08
4.53609e-06
2.47598e-09
4.54085e-06
1.4643e-08
4.54153e-06
-2.31126e-08
4.5447e-06
5.35852e-09
4.54637e-06
-9.68539e-10
4.54801e-06
-1.52249e-09
4.54858e-06
-3.04427e-10
4.54716e-06
-5.03693e-09
4.54358e-06
1.66298e-09
4.53902e-06
1.02767e-08
4.53428e-06
1.67032e-08
4.53072e-06
3.57152e-08
4.52587e-06
5.65475e-08
4.52163e-06
8.14215e-08
4.51914e-06
1.10017e-07
4.51994e-06
1.36896e-07
1.60026e-07
4.521e-06
4.74124e-06
-1.31724e-07
4.73895e-06
1.30037e-07
4.74902e-06
2.5586e-08
4.75349e-06
-2.00309e-09
4.75699e-06
1.11472e-08
4.75939e-06
-2.55114e-08
4.76176e-06
2.98368e-09
4.76342e-06
-2.62227e-09
4.76492e-06
-3.02485e-09
4.76238e-06
2.23727e-09
4.75899e-06
-1.65166e-09
4.75526e-06
5.39283e-09
4.75072e-06
1.4818e-08
4.74591e-06
2.15154e-08
4.7425e-06
3.91201e-08
4.73808e-06
6.09767e-08
4.73426e-06
8.52379e-08
4.73262e-06
1.11653e-07
4.73384e-06
1.35683e-07
1.58547e-07
4.73532e-06
4.96789e-06
-1.30813e-07
4.96579e-06
1.32136e-07
4.97456e-06
1.6809e-08
4.98138e-06
-8.81824e-09
4.98351e-06
9.01692e-09
4.98735e-06
-2.93526e-08
4.9896e-06
7.37787e-10
4.98993e-06
-2.95914e-09
4.99015e-06
-3.2402e-09
4.98518e-06
7.20796e-09
4.98097e-06
2.55246e-09
4.97743e-06
8.93422e-09
4.9731e-06
1.91475e-08
4.96817e-06
2.64515e-08
4.96473e-06
4.25578e-08
4.96085e-06
6.48529e-08
4.95748e-06
8.861e-08
4.95656e-06
1.12572e-07
4.95742e-06
1.34827e-07
1.56299e-07
4.95967e-06
5.20526e-06
-1.29755e-07
5.20379e-06
1.33602e-07
5.21056e-06
1.00438e-08
5.22006e-06
-1.83177e-08
5.22108e-06
7.9966e-09
5.22573e-06
-3.40006e-08
5.22831e-06
-1.84858e-09
5.22582e-06
-4.69152e-10
5.22395e-06
-1.36968e-09
5.21884e-06
1.23194e-08
5.21383e-06
7.56478e-09
5.21054e-06
1.22244e-08
5.20651e-06
2.31765e-08
5.20149e-06
3.14675e-08
5.19789e-06
4.61576e-08
5.19454e-06
6.82078e-08
5.19184e-06
9.13131e-08
5.19125e-06
1.13155e-07
5.19197e-06
1.3411e-07
1.53591e-07
5.19468e-06
5.45387e-06
-1.28438e-07
5.45351e-06
1.3396e-07
5.45766e-06
5.8947e-09
5.46976e-06
-3.04137e-08
5.47028e-06
7.47599e-09
5.4747e-06
-3.84222e-08
5.47729e-06
-4.43822e-09
5.4713e-06
5.52138e-09
5.46826e-06
1.67452e-09
5.46384e-06
1.67402e-08
5.45832e-06
1.3084e-08
5.45501e-06
1.55269e-08
5.45134e-06
2.68514e-08
5.44638e-06
3.64216e-08
5.44256e-06
4.9987e-08
5.4396e-06
7.11585e-08
5.43775e-06
9.31708e-08
5.43724e-06
1.13662e-07
5.4381e-06
1.3325e-07
1.50642e-07
5.44105e-06
5.71427e-06
-1.26752e-07
5.7155e-06
1.32735e-07
5.7167e-06
4.6945e-09
5.73066e-06
-4.43735e-08
5.73137e-06
6.76514e-09
5.73376e-06
-4.08181e-08
5.73513e-06
-5.79974e-09
5.72807e-06
1.25733e-08
5.7242e-06
5.55007e-09
5.72077e-06
2.01698e-08
5.71498e-06
1.88748e-08
5.71137e-06
1.91303e-08
5.70806e-06
3.01696e-08
5.70334e-06
4.11394e-08
5.69932e-06
5.40087e-08
5.69664e-06
7.38349e-08
5.69556e-06
9.42495e-08
5.6952e-06
1.14027e-07
5.69629e-06
1.32151e-07
1.47531e-07
5.69941e-06
5.98705e-06
-1.24607e-07
5.9903e-06
1.29484e-07
5.98849e-06
6.49824e-09
6.00299e-06
-5.88684e-08
6.00399e-06
5.76592e-09
6.00284e-06
-3.96675e-08
6.00399e-06
-6.9555e-09
5.99722e-06
1.93508e-08
5.99275e-06
1.00202e-08
5.9901e-06
2.28195e-08
5.98434e-06
2.4629e-08
5.98021e-06
2.32581e-08
5.97717e-06
3.32138e-08
5.97285e-06
4.54598e-08
5.96876e-06
5.80939e-08
5.96628e-06
7.63227e-08
5.96573e-06
9.47951e-08
5.96572e-06
1.14038e-07
5.9671e-06
1.30768e-07
1.44291e-07
5.97034e-06
6.27282e-06
-1.21938e-07
6.27843e-06
1.23877e-07
6.27392e-06
1.10012e-08
6.28715e-06
-7.20948e-08
6.28816e-06
4.75995e-09
6.28432e-06
-3.58294e-08
6.28575e-06
-8.38675e-09
6.27961e-06
2.54882e-08
6.27452e-06
1.51074e-08
6.27235e-06
2.49931e-08
6.26694e-06
3.00403e-08
6.26219e-06
2.80094e-08
6.25925e-06
3.61478e-08
6.25546e-06
4.92538e-08
6.25149e-06
6.2069e-08
6.24916e-06
7.86459e-08
6.24886e-06
9.50931e-08
6.24937e-06
1.13534e-07
6.2511e-06
1.29036e-07
1.40926e-07
6.25446e-06
6.57224e-06
-1.18708e-07
6.58035e-06
1.15765e-07
6.57371e-06
1.76407e-08
6.58417e-06
-8.2558e-08
6.58552e-06
3.4153e-09
6.5799e-06
-3.0213e-08
6.58123e-06
-9.71159e-09
6.57589e-06
3.08305e-08
6.57014e-06
2.08557e-08
6.56814e-06
2.69871e-08
6.5633e-06
3.48815e-08
6.55799e-06
3.33244e-08
6.55494e-06
3.91908e-08
6.55174e-06
5.24593e-08
6.54807e-06
6.57402e-08
6.54593e-06
8.07848e-08
6.54568e-06
9.53414e-08
6.54671e-06
1.12505e-07
6.54886e-06
1.26881e-07
1.37398e-07
6.55239e-06
6.88599e-06
-1.14904e-07
6.89649e-06
1.05257e-07
6.88855e-06
2.55857e-08
6.89562e-06
-8.96291e-08
6.89736e-06
1.6804e-09
6.89017e-06
-2.30285e-08
6.89106e-06
-1.05988e-08
6.88662e-06
3.52732e-08
6.88023e-06
2.72432e-08
6.87812e-06
2.90913e-08
6.874e-06
3.90048e-08
6.8683e-06
3.90226e-08
6.86495e-06
4.25481e-08
6.86228e-06
5.51234e-08
6.8591e-06
6.89166e-08
6.85722e-06
8.26675e-08
6.85693e-06
9.56329e-08
6.85837e-06
1.11062e-07
6.86099e-06
1.2426e-07
1.33639e-07
6.86475e-06
7.21478e-06
-1.10545e-07
7.22733e-06
9.27051e-08
7.2191e-06
3.38135e-08
7.22269e-06
-9.32168e-08
7.22443e-06
-6.12484e-11
7.2158e-06
-1.43934e-08
7.21585e-06
-1.06497e-08
7.21242e-06
3.87031e-08
7.20547e-06
3.41855e-08
7.20302e-06
3.1545e-08
7.19964e-06
4.23862e-08
7.19384e-06
4.4822e-08
7.19002e-06
4.63634e-08
7.18775e-06
5.7402e-08
7.18523e-06
7.14351e-08
7.1837e-06
8.41965e-08
7.18336e-06
9.59663e-08
7.18507e-06
1.09359e-07
7.18813e-06
1.21194e-07
1.29584e-07
7.19219e-06
7.55935e-06
-1.05671e-07
7.57347e-06
7.85877e-08
7.56589e-06
4.13977e-08
7.5662e-06
-9.35286e-08
7.56748e-06
-1.34626e-09
7.55751e-06
-4.42197e-09
7.55631e-06
-9.44828e-09
7.5539e-06
4.11087e-08
7.54663e-06
4.14637e-08
7.54357e-06
3.45984e-08
7.54088e-06
4.5079e-08
7.5353e-06
5.03984e-08
7.53098e-06
5.06888e-08
7.52886e-06
5.95206e-08
7.52712e-06
7.31732e-08
7.526e-06
8.53134e-08
7.52574e-06
9.62316e-08
7.52756e-06
1.07536e-07
7.53098e-06
1.17774e-07
1.25195e-07
7.53537e-06
7.92048e-06
-1.00335e-07
7.93549e-06
6.35776e-08
7.92941e-06
4.74721e-08
7.92688e-06
-9.09959e-08
7.92719e-06
-1.65413e-09
7.91605e-06
6.71048e-09
7.91325e-06
-6.64789e-09
7.91176e-06
4.25995e-08
7.90444e-06
4.87828e-08
7.90059e-06
3.84544e-08
7.89843e-06
4.7241e-08
7.89339e-06
5.54366e-08
7.88862e-06
5.54555e-08
7.88642e-06
6.17161e-08
7.88548e-06
7.41196e-08
7.88483e-06
8.59606e-08
7.8848e-06
9.62592e-08
7.88667e-06
1.05667e-07
7.89032e-06
1.1413e-07
1.20489e-07
7.89502e-06
8.29893e-06
-9.45849e-08
8.31416e-06
4.83492e-08
8.31016e-06
5.14759e-08
8.30513e-06
-8.59698e-08
8.30421e-06
-7.39276e-10
8.29216e-06
1.87668e-08
8.28754e-06
-2.02857e-09
8.28676e-06
4.33788e-08
8.27969e-06
5.58566e-08
8.27492e-06
4.32231e-08
8.27304e-06
4.9113e-08
8.26879e-06
5.96959e-08
8.26379e-06
6.04514e-08
8.26133e-06
6.41784e-08
8.26101e-06
7.44325e-08
8.26094e-06
8.60397e-08
8.2613e-06
9.58975e-08
8.26322e-06
1.03743e-07
8.26697e-06
1.10384e-07
1.15533e-07
8.27192e-06
8.69553e-06
-8.84549e-08
8.71073e-06
3.31505e-08
8.70792e-06
5.42875e-08
8.70113e-06
-7.91781e-08
8.69916e-06
1.2255e-09
8.68658e-06
3.13539e-08
8.6801e-06
4.44405e-09
8.67969e-06
4.37952e-08
8.67317e-06
6.23776e-08
8.66744e-06
4.8944e-08
8.66556e-06
5.09936e-08
8.66222e-06
6.30441e-08
8.65731e-06
6.53578e-08
8.6545e-06
6.69895e-08
8.65454e-06
7.43894e-08
8.65509e-06
8.54881e-08
8.65598e-06
9.50093e-08
8.65804e-06
1.01685e-07
8.66181e-06
1.06609e-07
1.10425e-07
8.66692e-06
9.11114e-06
-8.1972e-08
9.12587e-06
1.84118e-08
9.12369e-06
5.64757e-08
9.11486e-06
-7.03548e-08
9.1126e-06
3.49353e-09
9.10011e-06
4.38411e-08
9.09184e-06
1.27085e-08
9.09144e-06
4.41961e-08
9.08569e-06
6.81302e-08
9.07911e-06
5.55292e-08
9.07688e-06
5.32167e-08
9.07445e-06
6.54807e-08
9.06999e-06
6.98146e-08
9.06689e-06
7.0086e-08
9.06698e-06
7.43042e-08
9.06812e-06
8.43448e-08
9.06965e-06
9.34837e-08
9.07196e-06
9.93725e-08
9.07575e-06
1.02815e-07
1.05261e-07
9.08092e-06
9.54664e-06
-7.5155e-08
9.55919e-06
5.86352e-09
9.55697e-06
5.86955e-08
9.54718e-06
-6.05616e-08
9.54527e-06
5.40328e-09
9.53356e-06
5.55519e-08
9.52372e-06
2.25476e-08
9.52294e-06
4.49724e-08
9.5181e-06
7.29721e-08
9.51086e-06
6.27647e-08
9.50798e-06
5.61036e-08
9.5063e-06
6.71559e-08
9.50262e-06
7.3495e-08
9.49944e-06
7.32727e-08
9.49932e-06
7.4417e-08
9.50091e-06
8.27576e-08
9.50312e-06
9.12741e-08
9.50583e-06
9.66617e-08
9.50969e-06
9.89564e-08
1.00098e-07
9.51485e-06
1.0003e-05
-6.8023e-08
1.00121e-05
-3.24132e-09
1.00103e-05
6.05237e-08
9.9996e-06
-4.98863e-08
9.9982e-06
6.8052e-09
9.98777e-06
6.59804e-08
9.97666e-06
3.36626e-08
9.97516e-06
4.6472e-08
9.97126e-06
7.68696e-08
9.96369e-06
7.03333e-08
9.9599e-06
5.98923e-08
9.9587e-06
6.83562e-08
9.95602e-06
7.61783e-08
9.95303e-06
7.62673e-08
9.95262e-06
7.48233e-08
9.95444e-06
8.09354e-08
9.95729e-06
8.84292e-08
9.96052e-06
9.34275e-08
9.96454e-06
9.49369e-08
9.49484e-08
9.96969e-06
1.04812e-05
-6.06176e-08
1.04873e-05
-9.28856e-09
1.04859e-05
6.18716e-08
1.0474e-05
-3.79547e-08
1.04726e-05
8.25466e-09
1.04637e-05
7.48683e-08
1.04516e-05
4.57302e-08
1.04491e-05
4.89767e-08
1.04461e-05
7.98755e-08
1.04385e-05
7.78734e-08
1.04338e-05
6.46832e-08
1.04327e-05
6.94443e-08
1.0431e-05
7.78147e-08
1.04286e-05
7.87428e-08
1.04279e-05
7.54868e-08
1.04298e-05
7.90597e-08
1.04331e-05
8.50856e-08
1.04369e-05
8.96082e-08
1.04412e-05
9.06363e-08
8.9773e-08
1.04464e-05
1.09824e-05
-5.30151e-08
1.09894e-05
-1.62414e-08
1.0985e-05
6.62201e-08
1.09716e-05
-2.45615e-08
1.09697e-05
1.02262e-08
1.09622e-05
8.22835e-08
1.09495e-05
5.84276e-08
1.09458e-05
5.27503e-08
1.09435e-05
8.21105e-08
1.09364e-05
8.50318e-08
1.09306e-05
7.04131e-08
1.09293e-05
7.07944e-08
1.09286e-05
7.85329e-08
1.09269e-05
8.03972e-08
1.09261e-05
7.62675e-08
1.0928e-05
7.72174e-08
1.09316e-05
8.14215e-08
1.0936e-05
8.52307e-08
1.09407e-05
8.59456e-08
8.44913e-08
1.0946e-05
1.15076e-05
-4.52348e-08
1.15101e-05
-1.87118e-08
1.15078e-05
6.84551e-08
1.14937e-05
-1.04726e-08
1.14908e-05
1.3118e-08
1.14846e-05
8.85325e-08
1.14716e-05
7.1436e-08
1.14663e-05
5.80377e-08
1.14646e-05
8.37838e-08
1.14582e-05
9.14754e-08
1.14517e-05
7.6875e-08
1.14498e-05
7.27354e-08
1.14497e-05
7.85984e-08
1.14491e-05
8.10504e-08
1.14484e-05
7.6948e-08
1.14502e-05
7.53885e-08
1.1454e-05
7.76089e-08
1.14588e-05
8.03981e-08
1.1464e-05
8.08066e-08
7.89976e-08
1.14695e-05
1.20579e-05
-3.73382e-08
1.20577e-05
-1.84508e-08
1.20553e-05
7.08084e-08
1.20412e-05
3.65032e-09
1.20372e-05
1.71099e-08
1.20319e-05
9.3802e-08
1.20188e-05
8.45562e-08
1.20118e-05
6.50048e-08
1.20104e-05
8.52617e-08
1.20049e-05
9.6902e-08
1.19981e-05
8.37492e-08
1.19953e-05
7.54898e-08
1.19956e-05
7.83409e-08
1.19959e-05
8.07285e-08
1.19956e-05
7.72069e-08
1.19975e-05
7.3494e-08
1.20014e-05
7.37575e-08
1.20065e-05
7.5249e-08
1.20121e-05
7.52257e-08
7.31911e-08
1.20179e-05
1.26346e-05
-2.93832e-08
1.26324e-05
-1.61882e-08
1.263e-05
7.31489e-08
1.26152e-05
1.84352e-08
1.26098e-05
2.25182e-08
1.26054e-05
9.82413e-08
1.25924e-05
9.75841e-08
1.25837e-05
7.37031e-08
1.25819e-05
8.70511e-08
1.25777e-05
1.01123e-07
1.25708e-05
9.06224e-08
1.25671e-05
7.91365e-08
1.25674e-05
7.81287e-08
1.25684e-05
7.96627e-08
1.2569e-05
7.66584e-08
1.2571e-05
7.14766e-08
1.25749e-05
6.98464e-08
1.25802e-05
6.99446e-08
1.25862e-05
6.9247e-08
6.69992e-08
1.25924e-05
1.3239e-05
-2.14484e-08
1.32369e-05
-1.40804e-08
1.3233e-05
7.70294e-08
1.32172e-05
3.42329e-08
1.321e-05
2.97118e-08
1.32062e-05
1.02045e-07
1.31935e-05
1.10295e-07
1.31831e-05
8.40672e-08
1.31805e-05
8.9738e-08
1.31774e-05
1.04183e-07
1.3171e-05
9.70382e-08
1.31666e-05
8.35558e-08
1.31663e-05
7.83526e-08
1.31679e-05
7.8114e-08
1.31695e-05
7.5077e-08
1.31717e-05
6.92758e-08
1.31758e-05
6.5663e-08
1.31811e-05
6.47052e-08
1.31875e-05
6.28853e-08
6.03872e-08
1.31941e-05
1.38723e-05
-1.35988e-08
1.38691e-05
-1.08688e-08
1.38648e-05
8.13666e-08
1.38483e-05
5.06667e-08
1.38391e-05
3.89042e-08
1.38356e-05
1.05586e-07
1.38235e-05
1.22424e-07
1.38116e-05
9.59496e-08
1.38075e-05
9.38159e-08
1.38052e-05
1.06452e-07
1.37997e-05
1.02581e-07
1.37948e-05
8.84534e-08
1.37938e-05
7.9314e-08
1.37956e-05
7.63359e-08
1.37981e-05
7.2548e-08
1.38007e-05
6.67343e-08
1.38054e-05
6.09557e-08
1.38104e-05
5.96644e-08
1.38172e-05
5.61282e-08
5.33487e-08
1.38242e-05
1.4536e-05
-5.94492e-09
1.45301e-05
-4.97262e-09
1.45266e-05
8.48644e-08
1.45099e-05
6.7398e-08
1.44986e-05
5.01587e-08
1.44948e-05
1.09383e-07
1.44836e-05
1.33687e-07
1.44704e-05
1.0913e-07
1.44646e-05
9.96074e-08
1.44625e-05
1.0857e-07
1.4458e-05
1.07016e-07
1.44531e-05
9.34427e-08
1.44513e-05
8.10724e-08
1.4453e-05
7.46587e-08
1.44561e-05
6.94386e-08
1.44594e-05
6.34154e-08
1.44643e-05
5.60775e-08
1.44699e-05
5.40915e-08
1.44766e-05
4.93845e-08
4.57681e-08
1.44842e-05
1.52316e-05
1.38354e-09
1.52247e-05
1.91864e-09
1.52204e-05
8.91363e-08
1.52032e-05
8.45467e-08
1.51899e-05
6.34939e-08
1.51853e-05
1.13957e-07
1.51751e-05
1.43951e-07
1.5161e-05
1.23225e-07
1.51532e-05
1.07338e-07
1.51506e-05
1.11206e-07
1.51472e-05
1.10465e-07
1.51425e-05
9.80927e-08
1.51401e-05
8.34934e-08
1.51413e-05
7.34315e-08
1.51447e-05
6.60545e-08
1.5149e-05
5.91352e-08
1.51538e-05
5.12828e-08
1.51605e-05
4.73582e-08
1.51671e-05
4.27907e-08
3.77822e-08
1.51751e-05
1.59604e-05
8.3265e-09
1.59518e-05
1.04683e-08
1.5947e-05
9.40221e-08
1.593e-05
1.0148e-07
1.59145e-05
7.90414e-08
1.59086e-05
1.19788e-07
1.58992e-05
1.53358e-07
1.58847e-05
1.37709e-07
1.5875e-05
1.17089e-07
1.58713e-05
1.14946e-07
1.58683e-05
1.13401e-07
1.58643e-05
1.02082e-07
1.58615e-05
8.63724e-08
1.58621e-05
7.28239e-08
1.58654e-05
6.26696e-08
1.58704e-05
5.41511e-08
1.58756e-05
4.61236e-08
1.58828e-05
4.01279e-08
1.58906e-05
3.49821e-08
3.03304e-08
1.58981e-05
1.67241e-05
1.48409e-08
1.67121e-05
2.24864e-08
1.67082e-05
9.78876e-08
1.66918e-05
1.17917e-07
1.6674e-05
9.67817e-08
1.66664e-05
1.274e-07
1.66576e-05
1.62222e-07
1.66431e-05
1.52195e-07
1.66314e-05
1.28714e-07
1.66261e-05
1.2027e-07
1.66231e-05
1.16456e-07
1.66197e-05
1.05429e-07
1.66167e-05
8.94216e-08
1.66167e-05
7.28214e-08
1.66198e-05
5.95588e-08
1.6625e-05
4.89733e-08
1.66311e-05
3.99921e-08
1.66387e-05
3.25612e-08
1.66471e-05
2.65532e-08
2.18714e-08
1.66555e-05
1.75243e-05
2.08584e-08
1.7514e-05
3.28632e-08
1.75065e-05
1.05367e-07
1.749e-05
1.34431e-07
1.74703e-05
1.16455e-07
1.74604e-05
1.37312e-07
1.74516e-05
1.71015e-07
1.74373e-05
1.66444e-07
1.74241e-05
1.41948e-07
1.74168e-05
1.27534e-07
1.74131e-05
1.20216e-07
1.74099e-05
1.08586e-07
1.7407e-05
9.2371e-08
1.74064e-05
7.3377e-08
1.7409e-05
5.6935e-08
1.74143e-05
4.37356e-08
1.74212e-05
3.30655e-08
1.74294e-05
2.4404e-08
1.74385e-05
1.7457e-08
1.21158e-08
1.74482e-05
1.83628e-05
2.64216e-08
1.83497e-05
4.59876e-08
1.83425e-05
1.1252e-07
1.83263e-05
1.50587e-07
1.8305e-05
1.37756e-07
1.82924e-05
1.49928e-07
1.82831e-05
1.80348e-07
1.82691e-05
1.804e-07
1.82546e-05
1.56515e-07
1.82452e-05
1.36935e-07
1.82401e-05
1.25285e-07
1.82365e-05
1.12161e-07
1.82337e-05
9.51989e-08
1.82326e-05
7.44946e-08
1.82347e-05
5.48675e-08
1.82398e-05
3.85809e-08
1.82473e-05
2.55796e-08
1.82563e-05
1.53565e-08
1.82663e-05
7.45631e-09
1.16011e-09
1.82773e-05
1.92412e-05
3.16025e-08
1.9228e-05
5.91816e-08
1.92183e-05
1.22224e-07
1.92025e-05
1.66411e-07
1.91801e-05
1.60141e-07
1.91645e-05
1.65562e-07
1.91539e-05
1.90901e-07
1.91401e-05
1.94204e-07
1.91244e-05
1.72198e-07
1.91128e-05
1.48557e-07
1.91058e-05
1.32269e-07
1.91012e-05
1.16769e-07
1.90982e-05
9.82106e-08