/*--------------------------------*- C++ -*----------------------------------*\
| =========                 |                                                 |
| \\      /  F ield         | OpenFOAM: The Open Source CFD Toolbox           |
|  \\    /   O peration     | Version:  v2012                                 |
|   \\  /    A nd           | Website:  www.openfoam.com                      |
|    \\/     M anipulation  |                                                 |
\*---------------------------------------------------------------------------*/
FoamFile
{
    version     2.0;
    format      ascii;
    class       volScalarField;
    location    "1.4";
    object      p;
}
// * * * * * * * * * * * * * * * * * * * * * * * * * * * * * * * * * * * * * //

dimensions      [0 2 -2 0 0 0 0];


internalField   nonuniform List<scalar> 
17600
(
-2.61275e-10
-0.000136503
-9.48628e-06
-0.000714174
-0.000793027
-0.00195455
-0.00180402
-0.00288339
-0.00293202
-0.00395442
-0.00432884
-0.00452279
-0.00493092
-0.00461755
-0.00471497
-0.00394468
-0.00334727
-0.00174168
0.000162744
0.00389836
7.30012e-07
-0.000137033
-9.16388e-06
-0.000714896
-0.000792523
-0.00195696
-0.00180266
-0.00288749
-0.00292977
-0.00395878
-0.00432647
-0.00452847
-0.00492801
-0.00462541
-0.00470943
-0.00396602
-0.00333876
-0.00180582
0.000176756
0.00359155
1.5941e-06
-0.000138043
-8.78584e-06
-0.000716182
-0.000792642
-0.00196076
-0.00180184
-0.00289368
-0.00292641
-0.00396567
-0.00432248
-0.00453607
-0.00492353
-0.00463441
-0.00470301
-0.0039909
-0.00333049
-0.00187458
0.000175107
0.00317173
2.35688e-06
-0.000139312
-8.71899e-06
-0.000717945
-0.000793919
-0.00196587
-0.00180258
-0.00290119
-0.00292378
-0.00397307
-0.0043185
-0.004543
-0.00491832
-0.00464272
-0.00469752
-0.00401735
-0.00332481
-0.00194282
0.000142557
0.00275931
3.11962e-06
-0.000140891
-9.0103e-06
-0.000720207
-0.000796157
-0.00197244
-0.00180411
-0.00290998
-0.00292115
-0.00398015
-0.0043142
-0.00454877
-0.00491233
-0.00465139
-0.00469191
-0.00404651
-0.00332106
-0.00201516
7.80355e-05
0.00236815
3.92288e-06
-0.000142814
-9.56259e-06
-0.000722855
-0.000799002
-0.0019802
-0.00180566
-0.00291959
-0.00291762
-0.00398644
-0.00430904
-0.00455342
-0.00490578
-0.00466059
-0.00468618
-0.00407812
-0.00332026
-0.00209217
-1.69503e-05
0.0020004
4.74365e-06
-0.00014503
-1.02434e-05
-0.000725698
-0.000802153
-0.00198868
-0.00180702
-0.00292947
-0.00291321
-0.00399175
-0.00430324
-0.00455716
-0.00489903
-0.00467026
-0.0046811
-0.00411139
-0.00332463
-0.00217302
-0.000140776
0.0016519
5.57217e-06
-0.00014745
-1.09351e-05
-0.000728581
-0.000805447
-0.00199753
-0.00180833
-0.00293927
-0.00290839
-0.00399617
-0.00429741
-0.00456019
-0.00489264
-0.00468031
-0.00467746
-0.00414554
-0.00333655
-0.00225635
-0.000291895
0.00131666
6.43245e-06
-0.000150007
-1.15683e-05
-0.000731436
-0.000808855
-0.00200659
-0.00180977
-0.00294886
-0.00290364
-0.00399986
-0.00429199
-0.00456258
-0.00488708
-0.00469036
-0.00467618
-0.00417983
-0.00335793
-0.00234147
-0.000468305
0.000988683
7.36206e-06
-0.000152668
-1.21248e-05
-0.000734259
-0.000812413
-0.00201579
-0.0018115
-0.00295814
-0.00289929
-0.00400284
-0.00428731
-0.00456423
-0.00488267
-0.00469994
-0.00467817
-0.00421358
-0.00339023
-0.00242882
-0.000667018
0.000662812
8.39367e-06
-0.000155427
-1.26126e-05
-0.000737067
-0.000816168
-0.00202511
-0.00181361
-0.00296702
-0.00289556
-0.00400495
-0.00428368
-0.00456482
-0.00487983
-0.00470866
-0.00468423
-0.00424636
-0.00343439
-0.00252014
-0.000883997
0.00033504
9.55235e-06
-0.000158291
-1.30439e-05
-0.000739869
-0.000820162
-0.00203453
-0.00181616
-0.0029754
-0.00289264
-0.00400597
-0.00428151
-0.00456386
-0.00487918
-0.00471611
-0.00469498
-0.00427838
-0.00349051
-0.00261817
-0.00111474
2.89974e-06
1.0861e-05
-0.000161273
-1.3426e-05
-0.000742659
-0.000824432
-0.00204401
-0.00181924
-0.00298315
-0.00289073
-0.0040056
-0.00428122
-0.00456085
-0.00488132
-0.00472195
-0.00471092
-0.00431067
-0.00355762
-0.00272623
-0.00135535
-0.000334355
1.23455e-05
-0.000164385
-1.37625e-05
-0.000745421
-0.000829016
-0.0020535
-0.00182296
-0.0029901
-0.00289009
-0.00400352
-0.00428326
-0.00455536
-0.0048867
-0.00472608
-0.00473227
-0.00434506
-0.00363385
-0.00284743
-0.00160341
-0.000676094
1.40368e-05
-0.000167641
-1.40564e-05
-0.000748133
-0.000833951
-0.00206291
-0.00182748
-0.00299603
-0.00289106
-0.00399933
-0.00428815
-0.00454708
-0.00489554
-0.00472879
-0.00475867
-0.00438407
-0.00371703
-0.00298378
-0.00185824
-0.00102062
1.59719e-05
-0.00017106
-1.43126e-05
-0.000750765
-0.000839282
-0.00207215
-0.00183297
-0.00300069
-0.002894
-0.00399261
-0.00429634
-0.00453577
-0.00490795
-0.00473095
-0.00478895
-0.00443055
-0.00380584
-0.00313615
-0.00212013
-0.00136574
1.81933e-05
-0.000174658
-1.4539e-05
-0.000753277
-0.000845068
-0.0020811
-0.00183965
-0.00300379
-0.00289935
-0.00398295
-0.00430813
-0.00452091
-0.00492383
-0.00473398
-0.00482126
-0.00448724
-0.0039004
-0.00330387
-0.00239022
-0.00170979
2.07489e-05
-0.000178456
-1.47499e-05
-0.000755612
-0.000851381
-0.00208962
-0.00184776
-0.00300497
-0.00290758
-0.00397
-0.00432372
-0.00450389
-0.00494249
-0.00473982
-0.00485348
-0.00455606
-0.00400211
-0.00348484
-0.00267011
-0.00205231
2.36922e-05
-0.000182475
-1.49722e-05
-0.000757694
-0.000858315
-0.00209752
-0.0018576
-0.00300387
-0.00291912
-0.00395355
-0.00434316
-0.00448494
-0.00496259
-0.00475082
-0.00488409
-0.00463779
-0.00411314
-0.00367624
-0.00296099
-0.00239391
2.70825e-05
-0.000186727
-1.52493e-05
-0.000759431
-0.00086599
-0.00210459
-0.00186951
-0.00300014
-0.0029343
-0.00393358
-0.00436615
-0.0044652
-0.00498227
-0.00476926
-0.00491291
-0.00473223
-0.00423638
-0.00387561
-0.00326297
-0.00273628
3.09847e-05
-0.000191207
-1.56416e-05
-0.000760698
-0.000874572
-0.00211054
-0.00188384
-0.00299349
-0.00295332
-0.00391029
-0.00439203
-0.00444623
-0.00499936
-0.0047968
-0.00494073
-0.00483806
-0.00437504
-0.00408166
-0.00357506
-0.00308199
3.54551e-05
-0.000195894
-1.62315e-05
-0.000761327
-0.000884272
-0.00211513
-0.00190089
-0.00298377
-0.00297618
-0.00388414
-0.00441971
-0.00442983
-0.00501197
-0.00483442
-0.00496932
-0.00495304
-0.00453181
-0.00429468
-0.00389549
-0.00343417
4.05466e-05
-0.000200741
-1.71317e-05
-0.000761109
-0.000895314
-0.00211811
-0.00192091
-0.00297097
-0.0030026
-0.00385599
-0.0044476
-0.00441768
-0.00501829
-0.00488242
-0.00500136
-0.00507456
-0.00470841
-0.00451642
-0.00422215
-0.00379573
4.63029e-05
-0.000205662
-1.84959e-05
-0.000759807
-0.000907913
-0.00211929
-0.00194406
-0.00295526
-0.00303198
-0.00382703
-0.00447386
-0.00441114
-0.00501852
-0.00494014
-0.00503996
-0.00520031
-0.00490556
-0.00474972
-0.00455297
-0.00416877
5.27445e-05
-0.000210506
-2.05074e-05
-0.000757194
-0.000922264
-0.00211857
-0.00197028
-0.00293711
-0.00306345
-0.00379835
-0.0044968
-0.00441114
-0.00501326
-0.00500616
-0.00508828
-0.00532878
-0.00512249
-0.00499774
-0.00488657
-0.00455392
5.98605e-05
-0.000215058
-2.33555e-05
-0.000753073
-0.000938495
-0.002116
-0.00199936
-0.00291724
-0.00309592
-0.0037718
-0.00451518
-0.00441819
-0.00500381
-0.00507871
-0.0051494
-0.00545988
-0.00535668
-0.00526274
-0.00522207
-0.00494919
6.761e-05
-0.000219054
-2.72171e-05
-0.000747301
-0.000956637
-0.00211181
-0.0020308
-0.0028965
-0.00312837
-0.00374769
-0.00452837
-0.00443264
-0.00499247
-0.00515636
-0.00522682
-0.00559543
-0.00560453
-0.00554525
-0.00555855
-0.00534971
7.59233e-05
-0.000222189
-3.22358e-05
-0.000739835
-0.000976581
-0.00210644
-0.00206398
-0.00287557
-0.00315998
-0.00372654
-0.00453627
-0.00445486
-0.00498111
-0.00523809
-0.00532435
-0.00573801
-0.00586156
-0.00584431
-0.00589654
-0.00575042
8.46748e-05
-0.000224084
-3.84818e-05
-0.000730758
-0.000997987
-0.0021005
-0.00209832
-0.002855
-0.00319
-0.00370907
-0.00453902
-0.00448553
-0.00497363
-0.005324
-0.00544304
-0.00588821
-0.00612229
-0.00615787
-0.00623808
-0.00614604
9.3698e-05
-0.000224381
-4.58754e-05
-0.000720311
-0.0010203
-0.00209464
-0.00213339
-0.00283529
-0.00321789
-0.00369618
-0.00453711
-0.00452579
-0.00497723
-0.00541463
-0.00558007
-0.0060449
-0.00638179
-0.0064829
-0.00658558
-0.0065347
0.00010286
-0.000222829
-5.40924e-05
-0.000708884
-0.00104304
-0.00208931
-0.00216909
-0.00281686
-0.00324327
-0.0036893
-0.00453261
-0.00457601
-0.00499454
-0.00550766
-0.00573059
-0.00620806
-0.0066374
-0.0068158
-0.00694103
-0.00691602
0.000112037
-0.000219233
-6.25579e-05
-0.00069691
-0.00106597
-0.0020847
-0.00220561
-0.00280035
-0.00326514
-0.00369068
-0.00452882
-0.00463503
-0.00502514
-0.00560046
-0.00589059
-0.0063789
-0.00688852
-0.00715304
-0.007305
-0.00729082
0.000121127
-0.000213594
-7.04713e-05
-0.000684622
-0.00108911
-0.00208078
-0.00224334
-0.00278685
-0.00328621
-0.00370202
-0.00452832
-0.00469946
-0.00506689
-0.00569157
-0.00605676
-0.00655862
-0.00713604
-0.0074915
-0.00767653
-0.00766142
0.000130146
-0.000206203
-7.70893e-05
-0.000672024
-0.00110889
-0.0020775
-0.00228231
-0.0027783
-0.00330604
-0.00372342
-0.0045328
-0.00476645
-0.00511786
-0.00578032
-0.00622604
-0.00674819
-0.00738196
-0.00782814
-0.0080531
-0.00803007
0.000139247
-0.000197484
-8.21362e-05
-0.000658644
-0.0011343
-0.00207539
-0.00232211
-0.00277714
-0.00332575
-0.003753
-0.00454275
-0.00483486
-0.00517707
-0.00586694
-0.00639629
-0.00694841
-0.00762845
-0.00815955
-0.00843039
-0.00839771
0.000148606
-0.000187918
-8.55514e-05
-0.000643425
-0.00116144
-0.00207568
-0.00236247
-0.00278517
-0.0033469
-0.00378799
-0.00455715
-0.00490404
-0.00524423
-0.00595271
-0.00656629
-0.00715914
-0.00787685
-0.00848248
-0.00880335
-0.00876403
0.000158386
-0.000178027
-8.75195e-05
-0.000625171
-0.00119003
-0.00208011
-0.00240355
-0.00280329
-0.00337055
-0.00382609
-0.00457515
-0.00497335
-0.00531939
-0.00603981
-0.00673535
-0.00737891
-0.00812763
-0.0087949
-0.00916742
-0.00912751
0.000168866
-0.000168258
-8.63244e-05
-0.000603111
-0.00121888
-0.00209055
-0.00244595
-0.00283107
-0.00339586
-0.00386619
-0.0045958
-0.00504196
-0.00540243
-0.00613052
-0.00690283
-0.00760519
-0.0083809
-0.00909667
-0.00951937
-0.00948557
0.000180455
-0.000158907
-8.89574e-05
-0.000577236
-0.00124604
-0.0021083
-0.00249057
-0.00286685
-0.00342689
-0.00390844
-0.00461842
-0.00510885
-0.00549263
-0.00622651
-0.00706789
-0.00783489
-0.00863692
-0.00938958
-0.00985768
-0.00983504
0.000193546
-0.000149954
-9.52058e-05
-0.000548168
-0.00126979
-0.00213374
-0.00253827
-0.00290787
-0.00346261
-0.00395355
-0.00464328
-0.0051735
-0.00558882
-0.00632843
-0.00722937
-0.00806468
-0.00889601
-0.00967643
-0.0101822
-0.0101726
0.000208284
-0.000141072
-0.00010603
-0.000517893
-0.00128877
-0.00216657
-0.00258949
-0.0029528
-0.00350287
-0.00400255
-0.00467148
-0.00523611
-0.00568968
-0.00643615
-0.00738625
-0.00829126
-0.0091576
-0.00995965
-0.0104936
-0.0104955
0.000224568
-0.000131574
-0.000122098
-0.000489561
-0.00130226
-0.00220516
-0.00264444
-0.00300063
-0.00354724
-0.00405589
-0.00470412
-0.00529719
-0.00579374
-0.00654944
-0.00753843
-0.00851167
-0.00941945
-0.0102402
-0.0107931
-0.0108021
0.000242105
-0.000120569
-0.000143706
-0.000466992
-0.00131037
-0.00224719
-0.00270343
-0.00305065
-0.00359427
-0.00411343
-0.00474236
-0.00535732
-0.00589933
-0.00666821
-0.00768723
-0.00872357
-0.00967767
-0.0105172
-0.0110814
-0.0110924
0.00026047
-0.000107188
-0.000170745
-0.000453857
-0.00131363
-0.00229035
-0.00276672
-0.00310238
-0.00364203
-0.00417459
-0.00478728
-0.00541712
-0.00600461
-0.00679219
-0.00783494
-0.00892561
-0.00992753
-0.0107878
-0.0113591
-0.0113674
0.000279244
-9.08376e-05
-0.000202551
-0.000453059
-0.00131403
-0.00233241
-0.00283425
-0.00315607
-0.00368879
-0.00423831
-0.00483911
-0.00547717
-0.00610791
-0.00692043
-0.00798305
-0.00911743
-0.010165
-0.0110486
-0.0116261
-0.0116284
0.000297822
-7.13928e-05
-0.000237744
-0.000466781
-0.0013148
-0.00237171
-0.00290511
-0.00321242
-0.00373359
-0.00430247
-0.00489721
-0.00553841
-0.00620824
-0.00705095
-0.00813151
-0.00929932
-0.0103874
-0.0112963
-0.0118812
-0.0118765
0.00031537
-4.91023e-05
-0.000274611
-0.000496133
-0.0013197
-0.00240785
-0.00297751
-0.003272
-0.00377656
-0.00436457
-0.00496034
-0.00560189
-0.00630494
-0.00718068
-0.00827901
-0.00947203
-0.0105942
-0.0115282
-0.0121224
-0.0121113
0.000331247
-2.46429e-05
-0.00031163
-0.000541281
-0.00133351
-0.00244087
-0.00304971
-0.00333516
-0.00381869
-0.00442274
-0.00502634
-0.0056678
-0.00639717
-0.00730597
-0.00842378
-0.00963665
-0.0107858
-0.0117424
-0.0123469
-0.0123312
0.000345179
4.62673e-07
-0.000347963
-0.00060152
-0.00135818
-0.00247125
-0.00312032
-0.00340163
-0.00386077
-0.00447644
-0.00509258
-0.0057351
-0.00648384
-0.00742352
-0.00856376
-0.00979392
-0.0109632
-0.0119376
-0.0125514
-0.0125329
0.00035686
2.47127e-05
-0.000383541
-0.000674677
-0.00139621
-0.00250059
-0.00318785
-0.00347067
-0.0039034
-0.00452619
-0.005157
-0.00580185
-0.00656374
-0.00753076
-0.00869633
-0.00994356
-0.0111273
-0.0121135
-0.0127334
-0.0127132
0.000365494
4.62636e-05
-0.000418441
-0.000758425
-0.00144885
-0.00253119
-0.00325098
-0.00354124
-0.00394711
-0.00457211
-0.00521875
-0.00586628
-0.00663552
-0.00762501
-0.0088174
-0.0100837
-0.0112788
-0.0122706
-0.0128921
-0.0128691
0.000369882
6.33869e-05
-0.000452934
-0.000849574
-0.00151612
-0.00256625
-0.00330946
-0.00361133
-0.00399206
-0.00461414
-0.00527777
-0.00592792
-0.00669801
-0.00770281
-0.00892074
-0.0102104
-0.0114173
-0.0124106
-0.0130281
-0.0129992
0.000369008
7.4488e-05
-0.000487805
-0.000945397
-0.001597
-0.00260883
-0.0033649
-0.00367879
-0.00403711
-0.00465196
-0.00533311
-0.00598761
-0.00675108
-0.0077611
-0.00900024
-0.0103171
-0.01154
-0.0125343
-0.0131433
-0.0131037
0.000361858
7.6658e-05
-0.00052449
-0.00104405
-0.00168964
-0.00266045
-0.00341999
-0.00374337
-0.00407997
-0.00468405
-0.00538244
-0.00604532
-0.00679633
-0.00779894
-0.00905114
-0.0103953
-0.0116408
-0.0126404
-0.013239
-0.013184
0.000346963
6.93411e-05
-0.000563946
-0.00114443
-0.00179161
-0.00272122
-0.00347749
-0.00380749
-0.00411945
-0.00470742
-0.00542189
-0.00609863
-0.00683567
-0.00781773
-0.00907006
-0.0104369
-0.0117104
-0.0127227
-0.0133142
-0.0132416
0.000322646
5.1e-05
-0.000609224
-0.0012459
-0.0019001
-0.00279043
-0.00353904
-0.00387396
-0.00415714
-0.00471977
-0.0054464
-0.00614232
-0.00686841
-0.0078197
-0.009056
-0.0104363
-0.0117385
-0.0127704
-0.013363
-0.0132755
0.000287556
2.03063e-05
-0.000662712
-0.00134914
-0.00201239
-0.00286682
-0.00360519
-0.00394449
-0.0041962
-0.0047213
-0.00545114
-0.00616909
-0.00689029
-0.0078056
-0.00900978
-0.0103893
-0.0117158
-0.0127733
-0.0133755
-0.0132811
0.000239942
-2.41511e-05
-0.000725577
-0.00145532
-0.00212787
-0.0029491
-0.00367578
-0.00401938
-0.00423885
-0.00471476
-0.00543342
-0.00617141
-0.00689405
-0.00777303
-0.00893224
-0.0102941
-0.0116364
-0.0127225
-0.0133432
-0.0132497
0.000177621
-8.37487e-05
-0.000798343
-0.00156657
-0.0022483
-0.00303641
-0.00374951
-0.00409784
-0.00428609
-0.00470325
-0.00539319
-0.00614278
-0.00687059
-0.00771605
-0.00882189
-0.0101498
-0.0114953
-0.0126088
-0.0132558
-0.0131739
9.86634e-05
-0.000159441
-0.000882482
-0.00168464
-0.00237585
-0.00312967
-0.00382496
-0.0041787
-0.00433823
-0.00468919
-0.00533184
-0.00607815
-0.00680987
-0.00762548
-0.00867347
-0.00995311
-0.0112872
-0.0124225
-0.0131013
-0.0130423
8.53331e-07
-0.000252918
-0.000979061
-0.00181078
-0.00251219
-0.00323089
-0.00390216
-0.00426043
-0.00439532
-0.00467465
-0.00525128
-0.00597455
-0.00670241
-0.00749019
-0.00847814
-0.00969709
-0.0110041
-0.012152
-0.0128644
-0.0128381
-0.000117869
-0.000366823
-0.00108975
-0.00194569
-0.00265892
-0.00334194
-0.00398225
-0.00434207
-0.00445694
-0.00466207
-0.00515455
-0.00583116
-0.0065404
-0.00729733
-0.00822272
-0.00936988
-0.0106325
-0.0117798
-0.0125267
-0.0125466
-0.000259616
-0.000503487
-0.00121714
-0.00208998
-0.00281729
-0.0034657
-0.00406755
-0.00442411
-0.00452277
-0.00465465
-0.00504619
-0.00564925
-0.00631764
-0.00703127
-0.00788862
-0.00895271
-0.0101516
-0.0112786
-0.012048
-0.0121138
-0.000427504
-0.000664922
-0.0013639
-0.00224537
-0.00298743
-0.00360483
-0.00416234
-0.00450808
-0.00459405
-0.00465625
-0.00493399
-0.00543427
-0.00603029
-0.00667673
-0.00745057
-0.00841518
-0.00952871
-0.0106144
-0.0113915
-0.0115071
-0.000624336
-0.000854121
-0.00153304
-0.00241435
-0.00316936
-0.00376103
-0.00427068
-0.00459819
-0.00467342
-0.00467135
-0.0048296
-0.00519851
-0.00568157
-0.00622231
-0.00687416
-0.00771087
-0.00870818
-0.00972448
-0.010498
-0.0106733
-0.0008531
-0.00107442
-0.0017282
-0.00260029
-0.00336355
-0.00393466
-0.00439742
-0.00469936
-0.00476508
-0.00470681
-0.00474508
-0.00496385
-0.00529173
-0.0056638
-0.00612973
-0.00677378
-0.00760573
-0.00851149
-0.00926466
-0.00952125
-0.00111725
-0.00132853
-0.00195601
-0.00280803
-0.00357055
-0.00412622
-0.00454633
-0.0048171
-0.00487361
-0.00477228
-0.00469304
-0.00475047
-0.00490621
-0.00505099
-0.00520534
-0.00551528
-0.00604611
-0.00673532
-0.00743709
-0.00784711
-0.00140768
-0.00161954
-0.00222221
-0.00304215
-0.00379299
-0.00433578
-0.0047188
-0.00495882
-0.00500433
-0.00487806
-0.00469513
-0.00456536
-0.00452956
-0.00449796
-0.00431055
-0.00393715
-0.00355981
-0.00342833
-0.00363745
-0.0040793
-0.00172766
-0.00195054
-0.00253026
-0.00330621
-0.00403253
-0.00456279
-0.00491628
-0.0051302
-0.00516305
-0.00503307
-0.00478664
-0.00446513
-0.00410972
-0.0039018
-0.00397265
-0.00382635
-0.00282841
-0.000938285
0.00102076
0.0023452
-0.00211333
-0.0023229
-0.00287395
-0.00359684
-0.00428848
-0.00480338
-0.00513825
-0.00533172
-0.00534725
-0.00517953
-0.00495144
-0.00467316
-0.00383235
-0.0023224
-0.000652675
0.000833026
0.0021512
0.00339212
0.00442783
0.00488499
-0.00256548
-0.00274619
-0.00325215
-0.00391345
-0.00456084
-0.00505071
-0.00537032
-0.00554116
-0.00554722
-0.005212
-0.00412935
-0.0025832
-0.00104671
0.000252297
0.00134965
0.00237953
0.00341992
0.00442964
0.00520405
0.00536637
-0.00306666
-0.00322906
-0.00367129
-0.00425509
-0.00484244
-0.00528813
-0.00554685
-0.00556066
-0.00497631
-0.00384807
-0.00251763
-0.00126999
-0.00019612
0.000826681
0.0019058
0.00306418
0.0042468
0.00531696
0.00605073
0.00611944
-0.0036252
-0.00377415
-0.00413302
-0.00460879
-0.00508723
-0.00540424
-0.00529533
-0.00470921
-0.00386066
-0.00288908
-0.00187772
-0.000846587
0.000234562
0.0013757
0.00259078
0.00386732
0.00512704
0.00622204
0.00692549
0.00690519
-0.00424309
-0.004372
-0.00461669
-0.00491144
-0.00510959
-0.00501726
-0.00461393
-0.0039861
-0.00324715
-0.00242368
-0.00148935
-0.000435715
0.000722816
0.00196629
0.00327108
0.00460051
0.005877
0.00695583
0.00760692
0.00749443
-0.00488713
-0.00498606
-0.00504395
-0.00502732
-0.00485988
-0.00455076
-0.0040956
-0.00353468
-0.0028528
-0.00203817
-0.00108386
9.7246e-06
0.0012159
0.00250555
0.0038495
0.00519694
0.00645826
0.00748953
0.00806893
0.00787191
-0.00549524
-0.00553102
-0.00535516
-0.00502838
-0.00463327
-0.00419675
-0.00372544
-0.00317156
-0.00249365
-0.00167036
-0.000693292
0.000422254
0.00165025
0.00295966
0.00431024
0.00564612
0.00687853
0.00786609
0.00839193
0.00813632
-0.00602436
-0.00597194
-0.00558598
-0.00503975
-0.00447284
-0.00394397
-0.00342586
-0.00285203
-0.00216749
-0.00133772
-0.000352586
0.00077246
0.00200867
0.00332225
0.00467028
0.00599375
0.00720308
0.00815854
0.00864595
0.00834851
-0.00645221
-0.00630902
-0.00577948
-0.00507144
-0.00437022
-0.00375273
-0.00318203
-0.00258219
-0.00188643
-0.00105379
-7.30574e-05
0.00104816
0.00228656
0.00360313
0.00495004
0.00626483
0.00745713
0.00838878
0.00884801
0.00852051
-0.00677304
-0.0065756
-0.00594289
-0.0051183
-0.00431386
-0.00361852
-0.00300123
-0.00237621
-0.00166419
-0.00082071
0.000168505
0.00129446
0.00253208
0.00384546
0.00518647
0.00649081
0.00766747
0.00858023
0.00901885
0.00867018
-0.00697388
-0.00675971
-0.00608201
-0.00519415
-0.00432354
-0.0035737
-0.00291793
-0.00226981
-0.00154528
-0.000687576
0.000321048
0.00146811
0.00272251
0.00404305
0.00538141
0.00667755
0.00783873
0.00873842
0.00916678
0.0088105
0.00791276
0.00305143
-0.00425906
-0.00944997
-0.0105091
-0.00920182
-0.00764935
-0.00657079
-0.00593419
-0.00557259
-0.00537844
-0.00529603
-0.00528863
-0.00533171
-0.00541063
-0.00551156
-0.00561965
-0.00572617
-0.00583044
-0.0059338
-0.00603592
-0.00613667
-0.00623767
-0.00634031
-0.00644342
-0.00654498
-0.00664507
-0.0067458
-0.00684834
-0.0069517
-0.00705439
-0.00715614
-0.00725727
-0.00735773
-0.0074572
-0.00755565
-0.00765297
-0.00774881
-0.0078427
-0.00793451
-0.00802392
-0.00811048
-0.00819379
-0.00827411
-0.00835189
-0.00842733
-0.0085004
-0.00857141
-0.00864101
-0.00871005
-0.00877906
-0.00884817
-0.00891725
-0.00898603
-0.00905425
-0.00912152
-0.00918762
-0.00925243
-0.00931611
-0.00937882
-0.00944106
-0.00950328
-0.00956606
-0.00962957
-0.00969373
-0.00975793
-0.00982163
-0.00988438
-0.00994643
-0.010008
-0.0100692
-0.0101299
-0.0101904
-0.0102514
-0.0103132
-0.0103754
-0.0104374
-0.0104988
-0.0105597
-0.0106205
-0.0106818
-0.0107436
-0.0108057
-0.0108679
-0.0109299
-0.0109919
-0.0110539
-0.0111161
-0.0111783
-0.0112408
-0.0113036
-0.0113666
-0.0114295
-0.011492
-0.0115544
-0.0116172
-0.0116804
-0.0117437
-0.0118071
-0.0118705
-0.0119341
-0.0119978
-0.0120618
-0.0121259
-0.0121903
-0.0122546
-0.0123185
-0.0123824
-0.0124464
-0.0125107
-0.0125748
-0.0126385
-0.0127015
-0.0127641
-0.0128267
-0.0128896
-0.0129522
-0.013014
-0.0130746
-0.0131346
-0.0131943
-0.0132541
-0.0133133
-0.0133716
-0.0134286
-0.013485
-0.0135411
-0.013597
-0.0136525
-0.0137074
-0.0137615
-0.0138147
-0.0138676
-0.01392
-0.0139727
-0.014025
-0.0140761
-0.0141255
-0.0141749
-0.0142254
-0.0142762
-0.0143245
-0.0143706
-0.014418
-0.0144678
-0.0145158
-0.0145602
-0.0146055
-0.0146533
-0.0147001
-0.014744
-0.0147881
-0.014834
-0.0148789
-0.0149226
-0.0149661
-0.0150104
-0.0150542
-0.0150976
-0.015141
-0.0151842
-0.0152279
-0.0152707
-0.0153144
-0.015357
-0.0154007
-0.0154438
-0.0154873
-0.0155308
-0.0155742
-0.0156183
-0.0156616
-0.0157061
-0.0157497
-0.0157944
-0.0158386
-0.0158832
-0.0159282
-0.0159726
-0.0160183
-0.0160628
-0.0161088
-0.016154
-0.0161994
-0.0162461
-0.0162905
-0.016338
-0.016383
-0.0164294
-0.0164762
-0.0165211
-0.0165689
-0.016613
-0.0166614
-0.0167029
-0.0167512
-0.0167905
-0.0168258
-0.0168638
-0.0168843
0.00717998
0.00286832
-0.00418208
-0.00931306
-0.0104273
-0.00916324
-0.00762548
-0.00655413
-0.00592225
-0.00556351
-0.00537105
-0.00528973
-0.00528309
-0.00532672
-0.00540607
-0.00550738
-0.00561581
-0.00572263
-0.00582716
-0.00593077
-0.00603311
-0.00613405
-0.00623524
-0.00633804
-0.00644131
-0.00654302
-0.00664324
-0.00674409
-0.00684673
-0.0069502
-0.00705298
-0.00715481
-0.00725601
-0.00735655
-0.00745608
-0.00755459
-0.00765196
-0.00774785
-0.00784178
-0.00793364
-0.00802309
-0.00810969
-0.00819302
-0.00827338
-0.00835119
-0.00842666
-0.00849975
-0.00857079
-0.00864042
-0.00870948
-0.00877851
-0.00884764
-0.00891673
-0.00898553
-0.00905376
-0.00912104
-0.00918715
-0.00925198
-0.00931567
-0.00937839
-0.00944065
-0.00950289
-0.00956568
-0.0096292
-0.00969338
-0.00975758
-0.00982129
-0.00988405
-0.00994611
-0.0100077
-0.0100689
-0.0101296
-0.0101901
-0.0102511
-0.0103129
-0.0103752
-0.0104372
-0.0104986
-0.0105595
-0.0106203
-0.0106815
-0.0107433
-0.0108055
-0.0108677
-0.0109297
-0.0109917
-0.0110537
-0.0111159
-0.0111782
-0.0112406
-0.0113034
-0.0113664
-0.0114293
-0.0114918
-0.0115543
-0.011617
-0.0116802
-0.0117436
-0.011807
-0.0118704
-0.011934
-0.0119977
-0.0120616
-0.0121258
-0.0121902
-0.0122544
-0.0123184
-0.0123823
-0.0124463
-0.0125106
-0.0125747
-0.0126384
-0.0127014
-0.012764
-0.0128266
-0.0128895
-0.0129521
-0.0130139
-0.0130746
-0.0131345
-0.0131942
-0.013254
-0.0133132
-0.0133715
-0.0134286
-0.013485
-0.013541
-0.013597
-0.0136525
-0.0137074
-0.0137614
-0.0138147
-0.0138675
-0.01392
-0.0139726
-0.014025
-0.0140761
-0.0141254
-0.0141748
-0.0142254
-0.0142762
-0.0143245
-0.0143705
-0.014418
-0.0144678
-0.0145158
-0.0145602
-0.0146054
-0.0146533
-0.0147001
-0.0147439
-0.0147881
-0.0148339
-0.0148789
-0.0149226
-0.0149661
-0.0150104
-0.0150542
-0.0150976
-0.015141
-0.0151842
-0.0152278
-0.0152707
-0.0153144
-0.015357
-0.0154007
-0.0154438
-0.0154873
-0.0155308
-0.0155742
-0.0156183
-0.0156616
-0.0157061
-0.0157497
-0.0157944
-0.0158386
-0.0158832
-0.0159282
-0.0159726
-0.0160183
-0.0160628
-0.0161088
-0.016154
-0.0161994
-0.0162461
-0.0162905
-0.016338
-0.016383
-0.0164294
-0.0164762
-0.0165211
-0.0165689
-0.016613
-0.0166614
-0.0167029
-0.0167512
-0.0167905
-0.0168258
-0.0168638
-0.0168843
0.0064068
0.00268204
-0.00401158
-0.00905371
-0.0102778
-0.00910361
-0.00759334
-0.00652989
-0.00590358
-0.00554944
-0.00536034
-0.00528136
-0.00527632
-0.00532103
-0.00540112
-0.00550295
-0.00561178
-0.00571892
-0.00582374
-0.00592761
-0.00603019
-0.00613135
-0.00623272
-0.0063357
-0.00643913
-0.00654099
-0.00664135
-0.00674232
-0.00684509
-0.00694866
-0.00705154
-0.00715346
-0.00725474
-0.00735536
-0.00745496
-0.00755353
-0.00765096
-0.0077469
-0.00784089
-0.00793278
-0.00802228
-0.00810891
-0.00819228
-0.00827267
-0.0083505
-0.008426
-0.00849912
-0.00857018
-0.00863983
-0.00870892
-0.00877796
-0.00884712
-0.00891623
-0.00898504
-0.00905328
-0.00912058
-0.00918671
-0.00925154
-0.00931525
-0.00937798
-0.00944026
-0.0095025
-0.00956531
-0.00962884
-0.00969303
-0.00975725
-0.00982096
-0.00988373
-0.0099458
-0.0100074
-0.0100686
-0.0101293
-0.0101899
-0.0102508
-0.0103126
-0.0103749
-0.0104369
-0.0104983
-0.0105592
-0.0106201
-0.0106813
-0.0107431
-0.0108053
-0.0108675
-0.0109295
-0.0109915
-0.0110535
-0.0111157
-0.011178
-0.0112405
-0.0113033
-0.0113663
-0.0114291
-0.0114917
-0.0115541
-0.0116169
-0.0116801
-0.0117435
-0.0118068
-0.0118702
-0.0119338
-0.0119976
-0.0120615
-0.0121257
-0.01219
-0.0122543
-0.0123183
-0.0123822
-0.0124462
-0.0125105
-0.0125746
-0.0126383
-0.0127013
-0.0127639
-0.0128265
-0.0128894
-0.012952
-0.0130139
-0.0130745
-0.0131345
-0.0131941
-0.0132539
-0.0133132
-0.0133714
-0.0134285
-0.0134849
-0.013541
-0.0135969
-0.0136524
-0.0137073
-0.0137614
-0.0138146
-0.0138675
-0.01392
-0.0139726
-0.0140249
-0.0140761
-0.0141254
-0.0141748
-0.0142254
-0.0142762
-0.0143244
-0.0143705
-0.014418
-0.0144678
-0.0145158
-0.0145602
-0.0146054
-0.0146533
-0.0147001
-0.0147439
-0.0147881
-0.0148339
-0.0148789
-0.0149226
-0.014966
-0.0150104
-0.0150542
-0.0150976
-0.015141
-0.0151841
-0.0152278
-0.0152706
-0.0153144
-0.015357
-0.0154007
-0.0154438
-0.0154873
-0.0155308
-0.0155742
-0.0156183
-0.0156616
-0.0157061
-0.0157497
-0.0157944
-0.0158386
-0.0158832
-0.0159282
-0.0159726
-0.0160183
-0.0160628
-0.0161088
-0.016154
-0.0161993
-0.0162461
-0.0162905
-0.016338
-0.016383
-0.0164294
-0.0164762
-0.0165211
-0.0165689
-0.016613
-0.0166614
-0.0167029
-0.0167512
-0.0167905
-0.0168258
-0.0168638
-0.0168843
0.00567059
0.00251514
-0.00377245
-0.00870927
-0.0100683
-0.00901733
-0.00754638
-0.00649255
-0.00587379
-0.00552718
-0.00534405
-0.0052693
-0.00526715
-0.00531379
-0.00539512
-0.00549774
-0.00560709
-0.00571463
-0.00581977
-0.00592395
-0.00602682
-0.00612823
-0.00622984
-0.006333
-0.0064366
-0.00653863
-0.00663916
-0.0067403
-0.00684321
-0.00694691
-0.0070499
-0.00715193
-0.00725332
-0.00735402
-0.00745371
-0.00755237
-0.00764987
-0.00774588
-0.00783992
-0.00793187
-0.00802141
-0.00810809
-0.0081915
-0.00827192
-0.00834979
-0.00842531
-0.00849846
-0.00856954
-0.00863922
-0.00870833
-0.00877741
-0.00884658
-0.00891572
-0.00898455
-0.00905281
-0.00912012
-0.00918626
-0.0092511
-0.00931482
-0.00937756
-0.00943985
-0.00950211
-0.00956493
-0.00962847
-0.00969268
-0.00975691
-0.00982063
-0.00988341
-0.00994548
-0.0100071
-0.0100683
-0.010129
-0.0101896
-0.0102506
-0.0103124
-0.0103746
-0.0104367
-0.0104981
-0.010559
-0.0106198
-0.0106811
-0.0107429
-0.0108051
-0.0108673
-0.0109293
-0.0109913
-0.0110534
-0.0111155
-0.0111778
-0.0112403
-0.0113031
-0.0113661
-0.011429
-0.0114915
-0.011554
-0.0116167
-0.0116799
-0.0117433
-0.0118067
-0.0118701
-0.0119337
-0.0119974
-0.0120614
-0.0121256
-0.0121899
-0.0122542
-0.0123182
-0.0123821
-0.0124461
-0.0125104
-0.0125745
-0.0126382
-0.0127012
-0.0127638
-0.0128264
-0.0128894
-0.0129519
-0.0130138
-0.0130744
-0.0131344
-0.0131941
-0.0132538
-0.0133131
-0.0133714
-0.0134284
-0.0134848
-0.0135409
-0.0135968
-0.0136524
-0.0137073
-0.0137613
-0.0138146
-0.0138674
-0.0139199
-0.0139726
-0.0140249
-0.014076
-0.0141254
-0.0141748
-0.0142253
-0.0142761
-0.0143244
-0.0143705
-0.0144179
-0.0144677
-0.0145158
-0.0145602
-0.0146054
-0.0146533
-0.0147001
-0.0147439
-0.014788
-0.0148339
-0.0148789
-0.0149226
-0.014966
-0.0150104
-0.0150542
-0.0150976
-0.015141
-0.0151841
-0.0152278
-0.0152706
-0.0153144
-0.015357
-0.0154007
-0.0154438
-0.0154873
-0.0155308
-0.0155741
-0.0156183
-0.0156616
-0.0157061
-0.0157497
-0.0157944
-0.0158386
-0.0158832
-0.0159282
-0.0159726
-0.0160183
-0.0160628
-0.0161088
-0.016154
-0.0161993
-0.0162461
-0.0162905
-0.016338
-0.016383
-0.0164294
-0.0164762
-0.0165211
-0.0165689
-0.016613
-0.0166614
-0.0167029
-0.0167512
-0.0167905
-0.0168258
-0.0168638
-0.0168843
0.00496309
0.00233715
-0.0035142
-0.00833289
-0.00983094
-0.00891783
-0.00749139
-0.00644542
-0.00583364
-0.00549613
-0.00532107
-0.00525231
-0.00525439
-0.00530397
-0.00538723
-0.00549104
-0.00560113
-0.00570919
-0.00581476
-0.00591931
-0.00602253
-0.00612428
-0.00622617
-0.00632956
-0.00643335
-0.00653557
-0.00663632
-0.00673768
-0.00684078
-0.00694465
-0.00704779
-0.00714996
-0.00725148
-0.00735232
-0.00745213
-0.0075509
-0.00764851
-0.00774461
-0.00783873
-0.00793075
-0.00802036
-0.0081071
-0.00819056
-0.00827104
-0.00834894
-0.0084245
-0.00849767
-0.00856879
-0.0086385
-0.00870765
-0.00877676
-0.00884597
-0.00891515
-0.00898401
-0.0090523
-0.00911963
-0.00918577
-0.00925062
-0.00931433
-0.00937708
-0.00943938
-0.00950166
-0.00956451
-0.00962807
-0.00969229
-0.00975654
-0.00982028
-0.00988306
-0.00994513
-0.0100067
-0.0100679
-0.0101287
-0.0101893
-0.0102503
-0.0103121
-0.0103744
-0.0104364
-0.0104978
-0.0105587
-0.0106196
-0.0106809
-0.0107427
-0.0108048
-0.010867
-0.0109291
-0.0109911
-0.0110531
-0.0111153
-0.0111776
-0.0112401
-0.0113029
-0.0113659
-0.0114288
-0.0114914
-0.0115538