/*--------------------------------*- C++ -*----------------------------------*\
| =========                 |                                                 |
| \\      /  F ield         | OpenFOAM: The Open Source CFD Toolbox           |
|  \\    /   O peration     | Version:  v2012                                 |
|   \\  /    A nd           | Website:  www.openfoam.com                      |
|    \\/     M anipulation  |                                                 |
\*---------------------------------------------------------------------------*/
FoamFile
{
    version     2.0;
    format      ascii;
    class       surfaceScalarField;
    location    "3.9";
    object      phi;
}
// * * * * * * * * * * * * * * * * * * * * * * * * * * * * * * * * * * * * * //

dimensions      [0 3 -1 0 0 0 0];
oriented        oriented;


internalField   nonuniform List<scalar> 
34900
(
1.18298e-06
3.33259e-07
1.16014e-06
1.30922e-07
1.16119e-06
-2.29058e-07
1.15152e-06
2.62424e-08
1.15826e-06
2.77003e-08
1.14721e-06
-3.52661e-08
1.15371e-06
2.9537e-08
1.14563e-06
-2.63663e-08
1.15227e-06
5.43551e-08
1.14439e-06
-1.40919e-08
1.1511e-06
3.49897e-08
1.14273e-06
-2.06257e-08
1.14976e-06
2.00045e-08
1.13992e-06
-2.96334e-08
1.14769e-06
1.55959e-08
1.13577e-06
-3.59566e-08
1.14426e-06
2.31659e-08
1.12978e-06
-4.03026e-08
1.13438e-06
4.32092e-08
-3.9949e-08
1.09431e-06
1.23536e-06
3.22158e-07
1.21643e-06
1.49851e-07
1.21609e-06
-2.2871e-07
1.20808e-06
3.42432e-08
1.21271e-06
2.30755e-08
1.20393e-06
-2.64864e-08
1.20744e-06
2.603e-08
1.20317e-06
-2.20972e-08
1.20542e-06
5.21029e-08
1.20277e-06
-1.14462e-08
1.20371e-06
3.40554e-08
1.20278e-06
-1.96988e-08
1.20155e-06
2.12403e-08
1.20234e-06
-3.04311e-08
1.19769e-06
2.02534e-08
1.20156e-06
-3.9829e-08
1.19108e-06
3.36441e-08
1.19929e-06
-4.85076e-08
1.17677e-06
6.57277e-08
-4.08616e-08
1.17768e-06
1.28864e-06
3.16298e-07
1.27682e-06
1.6167e-07
1.27229e-06
-2.24172e-07
1.26859e-06
3.79391e-08
1.26843e-06
2.32347e-08
1.26528e-06
-2.33316e-08
1.26315e-06
2.81578e-08
1.26475e-06
-2.3695e-08
1.26098e-06
5.58646e-08
1.26495e-06
-1.54079e-08
1.25978e-06
3.9217e-08
1.26545e-06
-2.53681e-08
1.25845e-06
2.82392e-08
1.26481e-06
-3.67833e-08
1.25624e-06
2.88198e-08
1.26248e-06
-4.60704e-08
1.25325e-06
4.28794e-08
1.25667e-06
-5.19264e-08
1.24626e-06
7.61338e-08
-2.58793e-08
1.23128e-06
1.34389e-06
3.16508e-07
1.34145e-06
1.64116e-07
1.33145e-06
-2.1418e-07
1.3315e-06
3.78919e-08
1.32689e-06
2.78424e-08
1.3289e-06
-2.53334e-08
1.32243e-06
3.46261e-08
1.32774e-06
-2.90058e-08
1.32111e-06
6.24947e-08
1.32766e-06
-2.19589e-08
1.3216e-06
4.52777e-08
1.32787e-06
-3.1643e-08
1.32215e-06
3.39608e-08
1.32676e-06
-4.13872e-08
1.32185e-06
3.37257e-08
1.32411e-06
-4.83261e-08
1.32052e-06
4.64617e-08
1.31832e-06
-4.97234e-08
1.31431e-06
8.01395e-08
-7.37485e-09
1.29581e-06
1.40277e-06
3.22097e-07
1.40922e-06
1.57664e-07
1.39486e-06
-1.99826e-07
1.39648e-06
3.62798e-08
1.38978e-06
3.45415e-08
1.39426e-06
-2.98167e-08
1.38678e-06
4.21024e-08
1.39229e-06
-3.45169e-08
1.38672e-06
6.80728e-08
1.39221e-06
-2.74524e-08
1.38879e-06
4.86938e-08
1.39297e-06
-3.58163e-08
1.39048e-06
3.64484e-08
1.39259e-06
-4.34946e-08
1.39067e-06
3.56439e-08
1.39068e-06
-4.83356e-08
1.38927e-06
4.78732e-08
1.38502e-06
-4.54789e-08
1.38271e-06
8.24527e-08
1.12009e-08
1.36413e-06
1.46679e-06
3.30981e-07
1.47924e-06
1.45212e-07
1.46334e-06
-1.83924e-07
1.46437e-06
3.52494e-08
1.45825e-06
4.0666e-08
1.46262e-06
-3.41902e-08
1.45676e-06
4.79637e-08
1.46051e-06
-3.8264e-08
1.45748e-06
7.10953e-08
1.46103e-06
-3.10008e-08
1.46027e-06
4.94599e-08
1.4628e-06
-3.83513e-08
1.46228e-06
3.6971e-08
1.46324e-06
-4.44525e-08
1.4625e-06
3.63777e-08
1.46162e-06
-4.74473e-08
1.46101e-06
4.8479e-08
1.45539e-06
-3.98585e-08
1.45432e-06
8.35211e-08
2.98685e-08
1.43565e-06
1.53676e-06
3.40437e-07
1.5515e-06
1.3047e-07
1.53689e-06
-1.69309e-07
1.53647e-06
3.56723e-08
1.53227e-06
4.48563e-08
1.53539e-06
-3.73057e-08
1.53181e-06
5.15459e-08
1.53378e-06
-4.02358e-08
1.53273e-06
7.21426e-08
1.53497e-06
-3.32364e-08
1.53559e-06
4.88339e-08
1.53739e-06
-4.01501e-08
1.53767e-06
3.66929e-08
1.53813e-06
-4.49154e-08
1.53795e-06
3.65623e-08
1.53631e-06
-4.58122e-08
1.53641e-06
4.83816e-08
1.52935e-06
-3.27994e-08
1.52939e-06
8.34809e-08
4.83129e-08
1.51095e-06
1.6124e-06
3.4817e-07
1.62649e-06
1.16378e-07
1.61468e-06
-1.57502e-07
1.61329e-06
3.70615e-08
1.61093e-06
4.72211e-08
1.61288e-06
-3.92587e-08
1.61098e-06
5.34421e-08
1.61197e-06
-4.12194e-08
1.6119e-06
7.22061e-08
1.61348e-06
-3.48112e-08
1.6146e-06
4.77081e-08
1.61602e-06
-4.15684e-08
1.61664e-06
3.60725e-08
1.61667e-06
-4.49382e-08
1.61694e-06
3.62824e-08
1.61444e-06
-4.33059e-08
1.61527e-06
4.7551e-08
1.60683e-06
-2.43582e-08
1.60767e-06
8.26383e-08
6.59979e-08
1.58999e-06
1.69273e-06
3.53018e-07
1.70467e-06
1.04431e-07
1.69573e-06
-1.48554e-07
1.69441e-06
3.83778e-08
1.69315e-06
4.84814e-08
1.69446e-06
-4.0571e-08
1.69348e-06
5.44194e-08
1.69413e-06
-4.18651e-08
1.69447e-06
7.18673e-08
1.69566e-06
-3.60057e-08
1.69693e-06
4.64397e-08
1.69798e-06
-4.26145e-08
1.69884e-06
3.52081e-08
1.69832e-06
-4.44121e-08
1.69912e-06
3.54833e-08
1.69564e-06
-3.98261e-08
1.6972e-06
4.59872e-08
1.68757e-06
-1.47283e-08
1.68886e-06
8.13515e-08
8.23817e-08
1.67247e-06
1.77683e-06
3.54915e-07
1.78636e-06
9.48982e-08
1.77952e-06
-1.41712e-07
1.77904e-06
3.88572e-08
1.77829e-06
4.92289e-08
1.77938e-06
-4.16595e-08
1.77884e-06
5.49522e-08
1.77945e-06
-4.24693e-08
1.78e-06
7.13182e-08
1.78088e-06
-3.6885e-08
1.78222e-06
4.50931e-08
1.78282e-06
-4.32069e-08
1.78397e-06
3.40555e-08
1.78278e-06
-4.32228e-08
1.78419e-06
3.40759e-08
1.7797e-06
-3.53431e-08
1.78194e-06
4.37552e-08
1.77144e-06
-4.23526e-09
1.77277e-06
8.00288e-08
9.69715e-08
1.75818e-06
1.86427e-06
3.54395e-07
1.87175e-06
8.74142e-08
1.86616e-06
-1.3612e-07
1.86672e-06
3.82965e-08
1.86622e-06
4.97342e-08
1.86729e-06
-4.27309e-08
1.867e-06
5.52438e-08
1.86762e-06
-4.30964e-08
1.86837e-06
7.05696e-08
1.86893e-06
-3.74449e-08
1.87042e-06
4.36072e-08
1.87048e-06
-4.32663e-08
1.87202e-06
3.25129e-08
1.87008e-06
-4.12881e-08
1.87217e-06
3.19906e-08
1.86675e-06
-2.99205e-08
1.86948e-06
4.10249e-08
1.85856e-06
6.68317e-09
1.85948e-06
7.9112e-08
1.09383e-07
1.84706e-06
1.95513e-06
3.52102e-07
1.96108e-06
8.14669e-08
1.95614e-06
-1.31177e-07
1.95755e-06
3.68826e-08
1.95722e-06
5.00643e-08
1.95834e-06
-4.38482e-08
1.95823e-06
5.53554e-08
1.95884e-06
-4.37088e-08
1.95984e-06
6.95693e-08
1.96005e-06
-3.76555e-08
1.96179e-06
4.18709e-08
1.96125e-06
-4.2726e-08
1.96329e-06
3.04679e-08
1.96057e-06
-3.85682e-08
1.96334e-06
2.92215e-08
1.95714e-06
-2.37208e-08
1.9601e-06
3.80672e-08
1.94922e-06
1.75568e-08
1.94935e-06
7.89843e-08
1.19429e-07
1.93931e-06
2.04975e-06
3.48537e-07
2.05458e-06
7.66383e-08
2.04998e-06
-1.26574e-07
2.05194e-06
3.49226e-08
2.05179e-06
5.02105e-08
2.05294e-06
-4.49964e-08
2.05301e-06
5.52828e-08
2.05353e-06
-4.42293e-08
2.05486e-06
6.82393e-08
2.05468e-06
-3.74663e-08
2.05679e-06
3.97587e-08
2.05559e-06
-4.15293e-08
2.05823e-06
2.78289e-08
2.05474e-06
-3.50735e-08
2.05811e-06
2.58498e-08
2.05138e-06
-1.6994e-08
2.05421e-06
3.52417e-08
2.04383e-06
2.79293e-08
2.0429e-06
7.9913e-08
1.27147e-07
2.03519e-06
2.14852e-06
3.44023e-07
2.1525e-06
7.26552e-08
2.14814e-06
-1.22213e-07
2.15037e-06
3.26906e-08
2.15044e-06
5.01403e-08
2.15156e-06
-4.61183e-08
2.15186e-06
5.49854e-08
2.15219e-06
-4.45619e-08
2.15395e-06
6.64845e-08
2.15329e-06
-3.68095e-08
2.1559e-06
3.71497e-08
2.154e-06
-3.9636e-08
2.15728e-06
2.45486e-08
2.15309e-06
-3.08796e-08
2.15689e-06
2.20515e-08
2.14995e-06
-1.00534e-08
2.15225e-06
3.29399e-08
2.14276e-06
3.74219e-08
2.14066e-06
8.20137e-08
1.3278e-07
2.13502e-06
2.25176e-06
3.3875e-07
2.25505e-06
6.93632e-08
2.25095e-06
-1.18113e-07
2.25325e-06
3.03954e-08
2.25359e-06
4.98035e-08
2.2546e-06
-4.71308e-08
2.25519e-06
5.43955e-08
2.25522e-06
-4.45986e-08
2.25751e-06
6.42e-08
2.25631e-06
-3.56109e-08
2.25952e-06
3.39427e-08
2.25692e-06
-3.70373e-08
2.26082e-06
2.06435e-08
2.25609e-06
-2.61436e-08
2.26005e-06
1.80871e-08
2.25324e-06
-3.23913e-09
2.25466e-06
3.1521e-08
2.2463e-06
4.57745e-08
2.24308e-06
8.52417e-08
1.36723e-07
2.23913e-06
2.3598e-06
3.32829e-07
2.36247e-06
6.66903e-08
2.35871e-06
-1.1435e-07
2.3609e-06
2.82016e-08
2.36158e-06
4.9129e-08
2.36238e-06
-4.79357e-08
2.36335e-06
5.34254e-08
2.36298e-06
-4.42255e-08
2.3659e-06
6.12815e-08
2.36409e-06
-3.3805e-08
2.36796e-06
3.00735e-08
2.3647e-06
-3.37771e-08
2.36913e-06
1.62104e-08
2.3641e-06
-2.11088e-08
2.36791e-06
1.42741e-08
2.36154e-06
3.13029e-09
2.36182e-06
3.12423e-08
2.35471e-06
5.28884e-08
2.35055e-06
8.93954e-08
1.39446e-07
2.34783e-06
2.4729e-06
3.26321e-07
2.47497e-06
6.46214e-08
2.47165e-06
-1.11031e-07
2.4736e-06
2.62525e-08
2.47471e-06
4.80259e-08
2.47519e-06
-4.8425e-08
2.47665e-06
5.19737e-08
2.47575e-06
-4.33316e-08
2.4794e-06
5.76383e-08
2.47694e-06
-3.1353e-08
2.48148e-06
2.55346e-08
2.47768e-06
-2.99705e-08
2.48246e-06
1.14307e-08
2.47743e-06
-1.60826e-08
2.48077e-06
1.09362e-08
2.47509e-06
8.8097e-09
2.47412e-06
3.22136e-08
2.46816e-06
5.88449e-08
2.46342e-06
9.41365e-08
1.41424e-07
2.46144e-06
2.59136e-06
3.19253e-07
2.5928e-06
6.31824e-08
2.59004e-06
-1.08274e-07
2.59161e-06
2.46821e-08
2.59325e-06
4.63888e-08
2.59331e-06
-4.84867e-08
2.59535e-06
4.99357e-08
2.59384e-06
-4.18202e-08
2.59827e-06
5.32095e-08
2.59518e-06
-2.82614e-08
2.60032e-06
2.03916e-08
2.59616e-06
-2.58128e-08
2.60104e-06
6.55673e-09
2.59635e-06
-1.1395e-08
2.59892e-06
8.36258e-09
2.59409e-06
1.36455e-08
2.59192e-06
3.43778e-08
2.58688e-06
6.3887e-08
2.58195e-06
9.90614e-08
1.43075e-07
2.5803e-06
2.71545e-06
3.11631e-07
2.7162e-06
6.24288e-08
2.71414e-06
-1.06206e-07
2.7152e-06
2.36185e-08
2.71749e-06
4.41039e-08
2.71701e-06
-4.80116e-08
2.71973e-06
4.72152e-08
2.71754e-06
-3.96242e-08
2.72276e-06
4.7981e-08
2.71911e-06
-2.46035e-08
2.7247e-06
1.47981e-08
2.72047e-06
-2.15784e-08
2.72514e-06
1.88425e-09
2.72109e-06
-7.35072e-09
2.7227e-06
6.75554e-09
2.71873e-06
1.76164e-08
2.71557e-06
3.75325e-08
2.71113e-06
6.83327e-08
2.70639e-06
1.03802e-07
1.44686e-07
2.70478e-06
2.84546e-06
3.03443e-07
2.84545e-06
6.24367e-08
2.84421e-06
-1.04964e-07
2.84464e-06
2.31835e-08
2.84769e-06
4.10586e-08
2.84658e-06
-4.6905e-08
2.85005e-06
4.37422e-08
2.84715e-06
-3.67249e-08
2.85313e-06
4.20063e-08
2.84906e-06
-2.05386e-08
2.85486e-06
8.99799e-09
2.85088e-06
-1.75954e-08
2.85507e-06
-2.30103e-09
2.85188e-06
-4.16926e-09
2.85246e-06
6.17747e-09
2.84922e-06
2.08574e-08
2.84536e-06
4.13924e-08
2.84122e-06
7.24709e-08
2.83692e-06
1.08109e-07
1.46387e-07
2.83522e-06
2.98167e-06
2.94669e-07
2.98081e-06
6.32964e-08
2.98053e-06
-1.04686e-07
2.98023e-06
2.3488e-08
2.98413e-06
3.71538e-08
2.98233e-06
-4.51016e-08
2.98658e-06
3.94928e-08
2.98303e-06
-3.31753e-08
2.98961e-06
3.54289e-08
2.98539e-06
-1.63218e-08
2.99108e-06
3.30755e-09
2.98769e-06
-1.42037e-08
2.99116e-06
-5.77581e-09
2.98893e-06
-1.93593e-09
2.98859e-06
6.52104e-09
2.98581e-06
2.36342e-08
2.98153e-06
4.56678e-08
2.9775e-06
7.65076e-08
2.97373e-06
1.11875e-07
1.48166e-07
2.97195e-06
3.12439e-06
2.85287e-07
3.12258e-06
6.51059e-08
3.1234e-06
-1.05509e-07
3.12227e-06
2.46244e-08
3.1271e-06
3.23176e-08
3.12459e-06
-4.25847e-08
3.12957e-06
3.45126e-08
3.12551e-06
-2.91192e-08
3.13245e-06
2.84877e-08
3.12841e-06
-1.22836e-08
3.13365e-06
-1.93086e-09
3.13115e-06
-1.16994e-08
3.13379e-06
-8.42199e-09
3.13246e-06
-6.00646e-10
3.13144e-06
7.5379e-09
3.12882e-06
2.62591e-08
3.12433e-06
5.01518e-08
3.12022e-06
8.06199e-08
3.11704e-06
1.15053e-07
1.49931e-07
3.11528e-06
3.27392e-06
2.75276e-07
3.27106e-06
6.79652e-08
3.27312e-06
-1.07565e-07
3.27109e-06
2.66567e-08
3.27688e-06
2.65224e-08
3.2737e-06
-3.94076e-08
3.27928e-06
2.89397e-08
3.27497e-06
-2.48109e-08
3.28193e-06
2.15267e-08
3.27847e-06
-8.82027e-09
3.28292e-06
-6.38167e-09
3.28151e-06
-1.02928e-08
3.28333e-06
-1.02419e-08
3.28277e-06
-3.96928e-11
3.2814e-06
8.90493e-09
3.2787e-06
2.89623e-08
3.274e-06
5.4851e-08
3.26946e-06
8.51577e-08
3.26717e-06
1.17345e-07
1.51749e-07
3.26535e-06
3.43059e-06
2.64619e-07
3.42659e-06
7.19674e-08
3.42998e-06
-1.10963e-07
3.42704e-06
2.96022e-08
3.43375e-06
1.98086e-08
3.43006e-06
-3.57214e-08
3.43597e-06
2.30329e-08
3.43179e-06
-2.06317e-08
3.43833e-06
1.49851e-08
3.43588e-06
-6.36256e-09
3.43925e-06
-9.75123e-09
3.43904e-06
-1.00847e-08
3.44011e-06
-1.13164e-08
3.44022e-06
-1.4772e-10
3.43892e-06
1.02073e-08
3.43642e-06
3.14614e-08
3.43093e-06
6.03359e-08
3.42487e-06
9.12201e-08
3.42364e-06
1.18575e-07
1.53479e-07
3.42191e-06
3.59472e-06
2.53308e-07
3.5895e-06
7.71901e-08
3.59431e-06
-1.15772e-07
3.5905e-06
3.34117e-08
3.598e-06
1.23042e-08
3.59407e-06
-3.1784e-08
3.59995e-06
1.71548e-08
3.59634e-06
-1.70311e-08
3.60204e-06
9.2902e-09
3.60089e-06
-5.21551e-09
3.6031e-06
-1.19606e-08
3.60395e-06
-1.09353e-08
3.60455e-06
-1.19106e-08
3.60516e-06
-7.60078e-10
3.60452e-06
1.08483e-08
3.60503e-06
3.09477e-08
3.60519e-06
6.01799e-08
3.59871e-06
9.76935e-08
3.58153e-06
1.35763e-07
1.50826e-07
3.58418e-06
3.76667e-06
2.41344e-07
3.76018e-06
8.36813e-08
3.76641e-06
-1.22007e-07
3.76188e-06
3.79481e-08
3.76994e-06
4.24106e-09
3.76612e-06
-2.79615e-08
3.77154e-06
1.17304e-08
3.76894e-06
-1.44273e-08
3.7735e-06
4.72437e-09
3.77368e-06
-5.38772e-09
3.77503e-06
-1.33151e-08
3.77645e-06
-1.2354e-08
3.7772e-06
-1.2664e-08
3.77816e-06
-1.71447e-09
3.77888e-06
1.0125e-08
3.78313e-06
2.66972e-08
3.78812e-06
5.51907e-08
3.79541e-06
9.04051e-08
3.80735e-06
1.23821e-07
1.74004e-07
3.78417e-06
3.94679e-06
2.28745e-07
3.93903e-06
9.14418e-08
3.94661e-06
-1.29586e-07
3.9416e-06
4.29572e-08
3.94986e-06
-4.0242e-09
3.94665e-06
-2.47438e-08
3.95113e-06
7.24863e-09
3.9499e-06
-1.31956e-08
3.95321e-06
1.41045e-09
3.95446e-06
-6.64199e-09
3.95546e-06
-1.43158e-08
3.95693e-06
-1.38228e-08
3.95842e-06
-1.41482e-08
3.96063e-06
-3.92357e-09
3.9605e-06
1.02552e-08
3.95178e-06
3.5414e-08
3.94194e-06
6.50268e-08
3.93506e-06
9.72869e-08
3.92551e-06
1.33377e-07
1.67563e-07
3.93195e-06
4.13545e-06
2.15544e-07
4.12648e-06
1.00412e-07
4.13521e-06
-1.38317e-07
4.13012e-06
4.80534e-08
4.13812e-06
-1.20271e-08
4.13606e-06
-2.26871e-08
4.13916e-06
4.15149e-09
4.1395e-06
-1.35323e-08
4.14169e-06
-7.81816e-10
4.14357e-06
-8.52679e-09
4.14474e-06
-1.5482e-08
4.146e-06
-1.5086e-08
4.14614e-06
-1.42862e-08
4.14197e-06
2.46384e-10
4.13347e-06
1.87519e-08
4.12912e-06
3.97706e-08
4.12475e-06
6.93901e-08
4.11943e-06
1.02612e-07
4.11576e-06
1.37047e-07
1.64199e-07
4.11912e-06
4.33305e-06
2.01797e-07
4.32301e-06
1.10455e-07
4.33255e-06
-1.47864e-07
4.32789e-06
5.27151e-08
4.3351e-06
-1.92353e-08
4.33473e-06
-2.23197e-08
4.33619e-06
2.69693e-09
4.33798e-06
-1.53253e-08
4.33949e-06
-2.29373e-09
4.34136e-06
-1.03936e-08
4.34245e-06
-1.65769e-08
4.34025e-06
-1.288e-08
4.33565e-06
-9.68601e-09
4.33129e-06
4.59783e-09
4.32605e-06
2.40002e-08
4.32095e-06
4.48642e-08
4.31719e-06
7.31538e-08
4.31382e-06
1.05981e-07
4.31292e-06
1.37951e-07
1.61754e-07
4.31536e-06
4.53999e-06
1.87583e-07
4.5291e-06
1.21342e-07
4.53896e-06
-1.57721e-07
4.53538e-06
5.62906e-08
4.54125e-06
-2.50997e-08
4.543e-06
-2.40722e-08
4.5428e-06
2.89138e-09
4.54562e-06
-1.81375e-08
4.54704e-06
-3.71925e-09
4.54739e-06
-1.07395e-08
4.54627e-06
-1.54627e-08
4.54144e-06
-8.04367e-09
4.53679e-06
-5.03675e-09
4.53274e-06
8.64337e-09
4.52813e-06
2.86161e-08
4.52296e-06
5.00302e-08
4.51948e-06
7.66389e-08
4.51745e-06
1.08002e-07
4.51847e-06
1.3694e-07
1.60248e-07
4.51997e-06
4.75669e-06
1.73006e-07
4.74528e-06
1.3275e-07
4.75479e-06
-1.6723e-07
4.75303e-06
5.80492e-08
4.75708e-06
-2.9147e-08
4.76116e-06
-2.81489e-08
4.75964e-06
4.40742e-09
4.76273e-06
-2.12295e-08
4.76416e-06
-5.14886e-09
4.76093e-06
-7.50826e-09
4.7581e-06
-1.26342e-08
4.75332e-06
-3.25485e-09
4.74821e-06
6.54284e-11
4.74441e-06
1.24481e-08
4.74024e-06
3.27803e-08
4.73527e-06
5.50028e-08
4.73188e-06
8.00278e-08
4.73097e-06
1.08913e-07
4.73233e-06
1.35582e-07
1.58628e-07
4.73395e-06
4.98361e-06
1.5819e-07
4.97209e-06
1.44269e-07
4.98046e-06
-1.756e-07
4.98125e-06
5.72619e-08
4.98321e-06
-3.11021e-08
4.98951e-06
-3.44479e-08
4.98725e-06
6.65915e-09
4.98942e-06
-2.33962e-08
4.98974e-06
-5.47332e-09
4.98352e-06
-1.28473e-09
4.98012e-06
-9.2327e-09
4.97576e-06
1.10778e-09
4.97036e-06
5.45873e-09
4.96649e-06
1.6318e-08
4.96279e-06
3.64893e-08
4.95823e-06
5.95568e-08
4.95494e-06
8.33176e-08
4.95477e-06
1.09084e-07
4.95592e-06
1.34432e-07
1.56382e-07
4.95817e-06
5.22123e-06
1.4328e-07
5.21008e-06
1.55415e-07
5.21645e-06
-1.81969e-07
5.22038e-06
5.33332e-08
5.2203e-06
-3.10243e-08
5.22842e-06
-4.25661e-08
5.22594e-06
9.13711e-09
5.22567e-06
-2.31302e-08
5.22393e-06
-3.73191e-09
5.21676e-06
5.89089e-09
5.21286e-06
-5.33517e-09
5.20924e-06
4.72331e-09
5.20368e-06
1.10188e-08
5.19948e-06
2.05227e-08
5.19616e-06
3.98121e-08
5.1922e-06
6.35119e-08
5.18924e-06
8.62782e-08
5.1892e-06
1.09129e-07
5.1905e-06
1.33128e-07
1.53634e-07
5.19325e-06
5.47004e-06
1.28427e-07
5.45978e-06
1.65673e-07
5.46341e-06
-1.85598e-07
5.47065e-06
4.61012e-08
5.46903e-06
-2.94099e-08
5.47823e-06
-5.17695e-08
5.47571e-06
1.1666e-08
5.47108e-06
-1.85058e-08
5.46874e-06
-1.39173e-09
5.46149e-06
1.31429e-08
5.45699e-06
-8.40681e-10
5.45412e-06
7.59668e-09
5.44862e-06
1.65151e-08
5.44397e-06
2.51797e-08
5.44086e-06
4.29177e-08
5.4376e-06
6.67754e-08
5.4352e-06
8.86743e-08
5.43495e-06
1.09379e-07
5.43655e-06
1.31529e-07
1.50448e-07
5.43974e-06
5.7306e-06
1.13784e-07
5.72177e-06
1.74508e-07
5.72214e-06
-1.85973e-07
5.73226e-06
3.59867e-08
5.72969e-06
-2.68404e-08
5.73817e-06
-6.02483e-08
5.73356e-06
1.62748e-08
5.72685e-06
-1.17938e-08
5.72513e-06
3.18853e-10
5.71847e-06
1.98123e-08
5.71314e-06
4.48942e-09
5.71078e-06
9.95207e-09
5.70566e-06
2.1638e-08
5.70056e-06
3.02722e-08
5.69747e-06
4.601e-08
5.6949e-06
6.9346e-08
5.6932e-06
9.03804e-08
5.69277e-06
1.09806e-07
5.69457e-06
1.29727e-07
1.46872e-07
5.69815e-06
6.00349e-06
9.94902e-08
5.9966e-06
1.8139e-07
5.99353e-06
-1.82898e-07
6.00534e-06
2.41784e-08
6.00124e-06
-2.27402e-08
6.00648e-06
-6.54875e-08
6.00211e-06
2.06418e-08
5.99491e-06
-4.59688e-09
5.99409e-06
1.14327e-09
5.98813e-06
2.57657e-08
5.98193e-06
1.06919e-08
5.97971e-06
1.21725e-08
5.97527e-06
2.6085e-08
5.96988e-06
3.5656e-08
5.96661e-06
4.92807e-08
5.96469e-06
7.12705e-08
5.96366e-06
9.14036e-08
5.96328e-06
1.1019e-07
5.96517e-06
1.27833e-07
1.43009e-07
5.96904e-06
6.28931e-06
8.56635e-08
6.2848e-06
1.85905e-07
6.27846e-06
-1.76562e-07
6.29018e-06
1.24607e-08
6.28418e-06
-1.67347e-08
6.28771e-06
-6.90209e-08
6.28458e-06
2.37719e-08
6.27646e-06
3.52394e-09
6.27599e-06
1.61515e-09
6.27102e-06
3.07306e-08
6.26401e-06
1.77027e-08
6.2615e-06
1.46825e-08
6.25792e-06
2.96665e-08
6.25253e-06
4.10484e-08
6.24894e-06
5.28685e-08
6.24757e-06
7.26389e-08
6.24713e-06
9.18468e-08
6.24706e-06
1.10255e-07
6.24901e-06
1.25888e-07
1.38986e-07
6.25303e-06
6.58873e-06
7.24068e-08
6.58684e-06
1.87794e-07
6.57767e-06
-1.67392e-07
6.58806e-06
2.06286e-09
6.58131e-06
-9.98058e-09
6.58324e-06
-7.09483e-08
6.58121e-06
2.58038e-08
6.57202e-06
1.27082e-08
6.57138e-06
2.25222e-09
6.56764e-06
3.44768e-08
6.56003e-06
2.53102e-08
6.55685e-06
1.78626e-08
6.55413e-06
3.23851e-08
6.54909e-06
4.60884e-08
6.54516e-06
5.67955e-08
6.54417e-06
7.3638e-08
6.54421e-06
9.18008e-08
6.54466e-06
1.09804e-07
6.54671e-06
1.23842e-07
1.34909e-07
6.55079e-06
6.90239e-06
5.98068e-08
6.90316e-06
1.87029e-07
6.89183e-06
-1.56069e-07
6.9007e-06
-6.80567e-09
6.89324e-06
-2.51503e-09
6.89321e-06
-7.09257e-08
6.89226e-06
2.67568e-08
6.88229e-06
2.26826e-08
6.88092e-06
3.6143e-09
6.87854e-06
3.68646e-08
6.87066e-06
3.31904e-08
6.86653e-06
2.19858e-08
6.86448e-06
3.44374e-08
6.86014e-06
5.04319e-08
6.85602e-06
6.0916e-08
6.85514e-06
7.45171e-08
6.85559e-06
9.1347e-08
6.85666e-06
1.08732e-07
6.85892e-06
1.2159e-07
1.30831e-07
6.86299e-06
7.23101e-06
4.7933e-08
7.23425e-06
1.83792e-07
7.22169e-06
-1.43511e-07
7.22905e-06
-1.41622e-08
7.22069e-06
5.84469e-09
7.21824e-06
-6.848e-08
7.21825e-06
2.67476e-08
7.20792e-06
3.30117e-08
7.20537e-06
6.16775e-09
7.20425e-06
3.79817e-08
7.19657e-06
4.08694e-08
7.19137e-06
2.71845e-08
7.18963e-06
3.61773e-08
7.18622e-06
5.38454e-08
7.18221e-06
6.4922e-08
7.18122e-06
7.55057e-08
7.18197e-06
9.05982e-08
7.18369e-06
1.07019e-07
7.18627e-06
1.19006e-07
1.26742e-07
7.19036e-06
7.57532e-06
3.68391e-08
7.5808e-06
1.78308e-07
7.56787e-06
-1.3058e-07
7.574e-06
-2.02869e-08
7.56447e-06
1.5368e-08
7.55904e-06
-6.30481e-08
7.55977e-06
2.60153e-08
7.54963e-06
4.31547e-08
7.54554e-06
1.02541e-08
7.54539e-06
3.81367e-08
7.53844e-06
4.78239e-08
7.53221e-06
3.34095e-08
7.53036e-06
3.80287e-08
7.52793e-06
5.62748e-08
7.52444e-06
6.84145e-08
7.52321e-06
7.67292e-08
7.52412e-06
8.96888e-08
7.52642e-06
1.04722e-07
7.52944e-06
1.15991e-07
1.22579e-07
7.5336e-06
7.93607e-06
2.65758e-08
7.94345e-06
1.70937e-07
7.93106e-06
-1.18191e-07
7.93663e-06
-2.58631e-08
7.92534e-06
2.66594e-08
7.9164e-06
-5.41033e-08
7.91753e-06
2.48839e-08
7.90811e-06
5.25717e-08
7.90235e-06
1.60187e-08
7.90267e-06
3.7815e-08
7.89685e-06
5.36399e-08
7.88989e-06
4.03767e-08
7.88753e-06
4.03881e-08
7.88595e-06
5.78459e-08
7.88332e-06
7.10454e-08
7.88191e-06
7.8146e-08
7.88286e-06
8.87403e-08
7.88561e-06
1.0197e-07
7.8891e-06
1.12496e-07
1.18249e-07
7.89343e-06
8.31405e-06
1.72105e-08
8.32289e-06
1.62093e-07
8.31274e-06
-1.08042e-07
8.31774e-06
-3.08624e-08
8.30386e-06
4.05361e-08
8.29117e-06
-4.1414e-08
8.2923e-06
2.37537e-08
8.28407e-06
6.0803e-08
8.27669e-06
2.34065e-08
8.27691e-06
3.75936e-08
8.27245e-06
5.80951e-08
8.26518e-06
4.76452e-08
8.26206e-06
4.35101e-08
8.26108e-06
5.88262e-08
8.25949e-06
7.26339e-08
8.25811e-06
7.95313e-08
8.25902e-06
8.78288e-08
8.26207e-06
9.89211e-08
8.26603e-06
1.08537e-07
1.13663e-07
8.27061e-06
8.71004e-06
8.835e-09
8.72101e-06
1.51122e-07
8.71213e-06
-9.91673e-08
8.71644e-06
-3.51652e-08
8.70027e-06
5.67029e-08
8.68429e-06
-2.54364e-08
8.68501e-06
2.30401e-08
8.67826e-06
6.75452e-08
8.66947e-06
3.22032e-08
8.66902e-06
3.80438e-08
8.66593e-06
6.11822e-08
8.65885e-06
5.47254e-08
8.65492e-06
4.74362e-08
8.6542e-06
5.95454e-08
8.65364e-06
7.3195e-08
8.65259e-06
8.05835e-08
8.65348e-06
8.694e-08
8.65667e-06
9.57258e-08
8.66103e-06
1.04182e-07
1.08773e-07
8.66592e-06
9.12486e-06
1.59492e-09
9.13969e-06
1.36291e-07
9.13004e-06
-8.95221e-08
9.12941e-06
-3.4531e-08
9.11478e-06
7.13375e-08
9.09674e-06
-7.40469e-09
9.09658e-06
2.32031e-08
9.0914e-06
7.27227e-08
9.08161e-06
4.19948e-08
9.07998e-06
3.96731e-08
9.07807e-06
6.30984e-08
9.07163e-06
6.11608e-08
9.06706e-06
5.20065e-08
9.06631e-06
6.02941e-08
9.06657e-06
7.29381e-08
9.06614e-06
8.10159e-08
9.06711e-06
8.59673e-08
9.07035e-06
9.24862e-08
9.075e-06
9.95354e-08
1.03572e-07
9.0802e-06
9.55936e-06
-4.30729e-09
9.57222e-06
1.23438e-07
9.5552e-06
-7.25018e-08
9.55737e-06
-3.67083e-08
9.54832e-06
8.03934e-08
9.52962e-06
1.12914e-08
9.52798e-06
2.48463e-08
9.52427e-06
7.64303e-08
9.51403e-06
5.22355e-08
9.51086e-06
4.28399e-08
9.50975e-06
6.4215e-08
9.5043e-06
6.66032e-08
9.4994e-06
5.69144e-08
9.4984e-06
6.12855e-08
9.49918e-06
7.21641e-08
9.49953e-06
8.06587e-08
9.50076e-06
8.47448e-08
9.50401e-06
8.9233e-08
9.50884e-06
9.47023e-08
9.80857e-08
9.51433e-06
1.00145e-05
-8.70887e-09
1.002e-05
1.17944e-07
1.00028e-05
-5.52858e-08
1.00064e-05
-4.02929e-08
1.00023e-05
8.45415e-08
9.98376e-06
2.97833e-08
9.98014e-06
2.84622e-08
9.9777e-06
7.88688e-08
9.96757e-06
6.23705e-08
9.96275e-06
4.76554e-08
9.96193e-06
6.5034e-08
9.95767e-06
7.08659e-08
9.95281e-06
6.17804e-08
9.95148e-06
6.26123e-08
9.9525e-06
7.11483e-08
9.95365e-06
7.95007e-08
9.9553e-06
8.31001e-08
9.95861e-06
8.59224e-08
9.96355e-06
8.97651e-08
9.2363e-08
9.96927e-06
1.04915e-05
-1.15886e-08
1.04923e-05
1.17202e-07
1.04786e-05
-4.15993e-08
1.04793e-05
-4.10287e-08
1.04777e-05
8.6143e-08
1.04599e-05
4.76379e-08
1.04541e-05
3.41964e-08
1.04526e-05
8.04215e-08
1.04431e-05
7.18428e-08
1.04367e-05
5.40145e-08
1.04357e-05
6.60843e-08
1.04326e-05
7.39608e-08
1.04281e-05
6.62474e-08
1.04265e-05
6.42217e-08
1.04276e-05
7.01072e-08
1.04294e-05
7.7656e-08
1.04316e-05
8.09143e-08
1.0435e-05
8.24603e-08
1.04401e-05
8.47567e-08
8.64704e-08
1.04459e-05
1.09917e-05
-1.32482e-08
1.1011e-05
9.78346e-08
1.09832e-05
-1.37951e-08
1.09757e-05
-3.34911e-08
1.09757e-05
8.61034e-08
1.09589e-05
6.44537e-08
1.0951e-05
4.21454e-08
1.09498e-05
8.16405e-08
1.09414e-05
8.02121e-08
1.09338e-05
6.15649e-08
1.09321e-05
6.78201e-08
1.093e-05
7.60854e-08
1.09262e-05
7.00072e-08
1.09245e-05
6.59153e-08
1.09255e-05
6.91792e-08
1.09278e-05
7.52714e-08
1.09306e-05
7.81419e-08
1.09343e-05
7.87378e-08
1.09394e-05
7.96603e-08
8.0459e-08
1.09454e-05
1.15155e-05
-1.33988e-08
1.15196e-05
9.37377e-08
1.15036e-05
2.24893e-09
1.1497e-05
-2.69514e-08
1.14979e-05
8.52252e-08
1.14822e-05
8.01981e-08
1.1472e-05
5.22617e-08
1.14706e-05
8.31209e-08
1.14635e-05
8.72738e-08
1.14553e-05
6.97876e-08
1.14525e-05
7.05588e-08
1.1451e-05
7.76343e-08
1.14481e-05
7.29248e-08
1.14466e-05
6.74211e-08
1.14473e-05
6.84574e-08
1.14501e-05
7.2501e-08
1.14534e-05
7.48265e-08
1.14574e-05
7.46732e-08
1.14627e-05
7.4434e-08
7.43304e-08
1.14688e-05
1.20648e-05
-1.23374e-08
1.20692e-05
8.92787e-08
1.2051e-05
2.04286e-08
1.20434e-05
-1.92949e-08
1.2045e-05
8.36316e-08
1.20306e-05
9.46236e-08
1.20184e-05
6.43735e-08
1.2016e-05
8.5512e-08
1.20102e-05
9.30804e-08
1.20019e-05
7.81014e-08
1.19981e-05
7.43866e-08
1.19967e-05
7.90092e-08
1.19947e-05
7.49946e-08
1.19935e-05
6.85294e-08
1.19943e-05
6.77486e-08
1.19972e-05
6.95189e-08
1.2001e-05
7.10337e-08
1.20055e-05
7.02173e-08
1.20109e-05
6.90171e-08
6.80587e-08
1.20172e-05
1.26404e-05
-1.01105e-08
1.26437e-05
8.59256e-08
1.26273e-05
3.68726e-08
1.26165e-05
-8.55845e-09
1.26178e-05
8.23869e-08
1.26051e-05
1.07306e-07
1.25914e-05
7.81073e-08
1.25876e-05
8.93274e-08
1.25827e-05
9.79062e-08
1.25748e-05
8.60003e-08
1.257e-05
7.91841e-08
1.25685e-05
8.05718e-08
1.25671e-05
7.6392e-08
1.25664e-05
6.92175e-08
1.25674e-05
6.66822e-08
1.25704e-05
6.65253e-08
1.25747e-05
6.68027e-08
1.25795e-05
6.54086e-08
1.25851e-05
6.33491e-08
6.16008e-08
1.25916e-05
1.32437e-05
-6.88661e-09
1.32519e-05
7.77812e-08
1.32337e-05
5.50136e-08
1.32177e-05
7.43381e-09
1.32177e-05
8.2454e-08
1.32069e-05
1.18021e-07
1.31921e-05
9.29324e-08
1.31865e-05
9.49823e-08
1.31821e-05
1.02237e-07
1.3175e-05
9.31786e-08
1.31695e-05
8.46625e-08
1.31675e-05
8.25763e-08
1.31665e-05
7.73893e-08
1.31662e-05
6.94483e-08
1.31678e-05
6.5078e-08
1.31709e-05
6.34984e-08
1.31756e-05
6.20853e-08
1.31806e-05
6.03974e-08
1.31866e-05
5.73384e-08
5.48951e-08
1.31933e-05
1.38761e-05
-2.80671e-09
1.38841e-05
6.97627e-08
1.38672e-05
7.19461e-08
1.38483e-05
2.62994e-08
1.38462e-05
8.4539e-08
1.38372e-05
1.2702e-07
1.38219e-05
1.0825e-07
1.38142e-05
1.0269e-07
1.38098e-05
1.06643e-07
1.38034e-05
9.95451e-08
1.37977e-05
9.03956e-08
1.37951e-05
8.51651e-08
1.37942e-05
7.82557e-08
1.37945e-05
6.92303e-08
1.37965e-05
6.30262e-08
1.37998e-05
6.01872e-08
1.3805e-05
5.68727e-08
1.38101e-05
5.53158e-08
1.38166e-05
5.08871e-08
4.78964e-08
1.38236e-05
1.45389e-05
1.92719e-09
1.45392e-05
6.95234e-08
1.45283e-05
8.27715e-08
1.45095e-05
4.51346e-08
1.4505e-05
8.90546e-08
1.44972e-05
1.34791e-07
1.4482e-05
1.23443e-07
1.44723e-05
1.12432e-07
1.44672e-05
1.1172e-07
1.44615e-05
1.05303e-07
1.44559e-05
9.59967e-08
1.44527e-05
8.83545e-08
1.44517e-05
7.92172e-08
1.44522e-05
6.87017e-08
1.44546e-05
6.06732e-08
1.44585e-05
5.62543e-08
1.44639e-05
5.15103e-08
1.44696e-05
4.96278e-08
1.44762e-05
4.42374e-08
4.04681e-08
1.44836e-05
1.52338e-05
7.02653e-09
1.52356e-05
6.76971e-08
1.52229e-05
9.54804e-08
1.52023e-05
6.56889e-08
1.51954e-05
9.59618e-08
1.51883e-05
1.41925e-07
1.51736e-05
1.38106e-07
1.51621e-05
1.23965e-07
1.51558e-05
1.17985e-07
1.51503e-05
1.10831e-07
1.5145e-05
1.01273e-07
1.51414e-05
9.19531e-08
1.51402e-05
8.04538e-08
1.51408e-05
6.8066e-08
1.51435e-05
5.80397e-08
1.51481e-05
5.1664e-08
1.51534e-05
4.6217e-08
1.51603e-05
4.27088e-08
1.51668e-05
3.76877e-08
3.24299e-08
1.51749e-05
1.5962e-05
1.2389e-08
1.59636e-05
6.60353e-08
1.59497e-05
1.09405e-07
1.59287e-05
8.66832e-08
1.59191e-05
1.05595e-07
1.5912e-05
1.48997e-07
1.58981e-05
1.52054e-07
1.58851e-05
1.36903e-07
1.58773e-05
1.258e-07
1.58715e-05
1.16595e-07
1.58665e-05
1.06299e-07
1.58628e-05
9.56801e-08
1.58611e-05
8.2128e-08
1.58617e-05
6.75004e-08
1.58645e-05
5.51992e-08
1.58695e-05
4.66902e-08
1.58753e-05
4.04355e-08
1.58828e-05
3.52157e-08
1.58903e-05
3.01455e-08
2.45316e-08
1.58982e-05
1.67249e-05
1.80469e-08
1.67149e-05
7.60735e-08
1.67102e-05
1.14135e-07
1.66903e-05
1.06532e-07
1.66777e-05
1.18267e-07
1.667e-05
1.56665e-07
1.66567e-05
1.65312e-07
1.66427e-05
1.50892e-07
1.66332e-05
1.35346e-07
1.66267e-05
1.23106e-07
1.66216e-05
1.11393e-07
1.66179e-05
9.93286e-08
1.66158e-05
8.42851e-08
1.66161e-05
6.71504e-08
1.6619e-05
5.23164e-08
1.66242e-05
4.15258e-08
1.66308e-05
3.38106e-08
1.66387e-05
2.72718e-08
1.66474e-05
2.14489e-08
1.64341e-08
1.66555e-05
1.7525e-05
2.34177e-08
1.75294e-05
7.16167e-08
1.75112e-05
1.32374e-07
1.74882e-05
1.29503e-07
1.74728e-05
1.33674e-07
1.74639e-05
1.65623e-07
1.74511e-05
1.78067e-07
1.74364e-05
1.65628e-07
1.74251e-05
1.46652e-07
1.74174e-05
1.30785e-07
1.74118e-05
1.16939e-07
1.74081e-05
1.03039e-07
1.74056e-05
8.68595e-08
1.74055e-05
6.71774e-08
1.74083e-05
4.9574e-08
1.74137e-05
3.61348e-08
1.7421e-05
2.64718e-08
1.74296e-05
1.86392e-08
1.7439e-05
1.21072e-08
6.87368e-09
1.74485e-05
1.83628e-05
2.89233e-08
1.83502e-05
8.43006e-08
1.83455e-05
1.36996e-07
1.83249e-05
1.50108e-07
1.83066e-05
1.52013e-07
1.82956e-05
1.76567e-07
1.8283e-05
1.90683e-07
1.82677e-05
1.80922e-07
1.82547e-05
1.59714e-07
1.82454e-05
1.40059e-07
1.8239e-05
1.23378e-07
1.82348e-05
1.07211e-07
1.82318e-05
8.986e-08
1.82313e-05
6.76978e-08
1.82337e-05
4.71172e-08
1.82393e-05
3.05874e-08
1.82472e-05
1.85024e-08
1.82567e-05
9.16485e-09
1.82672e-05
1.60966e-09
-3.91355e-09
1.8278e-05
1.92411e-05
3.42261e-08
1.9234e-05
9.13517e-08
1.9221e-05
1.50072e-07
1.92013e-05
1.69781e-07
1.91805e-05
1.72753e-07
1.91672e-05
1.89901e-07
1.91541e-05
2.0379e-07
1.91383e-05
1.96717e-07
1.91235e-05
1.74489e-07
1.91124e-05
1.51221e-07
1.91045e-05