/*--------------------------------*- C++ -*----------------------------------*\
| =========                 |                                                 |
| \\      /  F ield         | OpenFOAM: The Open Source CFD Toolbox           |
|  \\    /   O peration     | Version:  v2012                                 |
|   \\  /    A nd           | Website:  www.openfoam.com                      |
|    \\/     M anipulation  |                                                 |
\*---------------------------------------------------------------------------*/
FoamFile
{
    version     2.0;
    format      ascii;
    class       volVectorField;
    location    "3.9";
    object      U;
}
// * * * * * * * * * * * * * * * * * * * * * * * * * * * * * * * * * * * * * //

dimensions      [0 1 -1 0 0 0 0];


internalField   nonuniform List<vector> 
17600
(
(0.833168 0.0034444 0)
(1.17558 0.00125877 0)
(0.824808 -0.00273578 0)
(1.15095 0.000264274 0)
(0.832097 0.000453954 0)
(1.13879 -0.000646589 0)
(0.836843 0.000554066 0)
(1.12577 -0.000567617 0)
(0.846918 0.00114535 0)
(1.11479 -0.000400951 0)
(0.854463 0.000904274 0)
(1.10555 -0.000638058 0)
(0.859917 0.000658205 0)
(1.09893 -0.00103279 0)
(0.860683 0.000623312 0)
(1.09509 -0.00143669 0)
(0.855969 0.000962076 0)
(1.09375 -0.00178944 0)
(0.84309 0.00176948 0)
(1.09297 -0.00205987 0)
(0.841765 0.00330509 0)
(1.16192 0.00151818 0)
(0.838607 -0.00272893 0)
(1.13675 0.000388253 0)
(0.848103 0.000352141 0)
(1.12204 -0.000476963 0)
(0.855797 0.000461391 0)
(1.10589 -0.000432751 0)
(0.869655 0.0010474 0)
(1.09057 -0.000261667 0)
(0.882898 0.000793107 0)
(1.0754 -0.000491812 0)
(0.896654 0.000541494 0)
(1.05971 -0.000885906 0)
(0.910096 0.000556283 0)
(1.0413 -0.00138404 0)
(0.925364 0.00116555 0)
(1.01653 -0.00212722 0)
(0.943613 0.00297898 0)
(0.978766 -0.00326897 0)
(0.859204 0.00319044 0)
(1.13717 0.00172442 0)
(0.864707 -0.00270742 0)
(1.10996 0.000482897 0)
(0.876766 0.000307698 0)
(1.09241 -0.000356851 0)
(0.888653 0.000430672 0)
(1.07269 -0.000389612 0)
(0.906259 0.00104371 0)
(1.05386 -0.000263226 0)
(0.923608 0.00083596 0)
(1.03578 -0.000556418 0)
(0.940802 0.000670423 0)
(1.01833 -0.00101663 0)
(0.955611 0.000807699 0)
(1.00132 -0.00156883 0)
(0.967461 0.00152696 0)
(0.985275 -0.00219852 0)
(0.973443 0.00336765 0)
(0.970367 -0.00201609 0)
(0.883112 0.00315837 0)
(1.10604 0.00181065 0)
(0.898445 -0.00262097 0)
(1.07669 0.000504158 0)
(0.910508 0.000347503 0)
(1.05839 -0.000355434 0)
(0.924342 0.000511624 0)
(1.03832 -0.00047011 0)
(0.941479 0.00116375 0)
(1.02129 -0.000401413 0)
(0.956737 0.000995364 0)
(1.00759 -0.00073969 0)
(0.969469 0.000881199 0)
(0.996995 -0.00120637 0)
(0.977381 0.00105656 0)
(0.989103 -0.00171724 0)
(0.980687 0.00177573 0)
(0.98322 -0.00215831 0)
(0.978677 0.00356234 0)
(0.976798 -0.000822723 0)
(0.909726 0.00319389 0)
(1.07416 0.00178263 0)
(0.932721 -0.00246629 0)
(1.04495 0.000482107 0)
(0.941408 0.000437802 0)
(1.02932 -0.000421727 0)
(0.953491 0.000644153 0)
(1.01309 -0.000586862 0)
(0.966165 0.0013021 0)
(1.00195 -0.000545841 0)
(0.975976 0.00111953 0)
(0.995355 -0.000877608 0)
(0.982942 0.000999608 0)
(0.991531 -0.00130044 0)
(0.985762 0.00116698 0)
(0.988878 -0.00174958 0)
(0.98561 0.00187667 0)
(0.985898 -0.00203369 0)
(0.982307 0.00368601 0)
(0.980288 0.000198406 0)
(0.93516 0.003274 0)
(1.04674 0.0016689 0)
(0.961409 -0.00227641 0)
(1.02101 0.000457207 0)
(0.964833 0.000535023 0)
(1.01053 -0.000498188 0)
(0.97293 0.000762386 0)
(1.00002 -0.000674178 0)
(0.980355 0.00138975 0)
(0.994739 -0.000640369 0)
(0.985564 0.00116445 0)
(0.99311 -0.000954599 0)
(0.989273 0.00103326 0)
(0.992549 -0.001338 0)
(0.990254 0.00120441 0)
(0.991461 -0.00173533 0)
(0.989361 0.00191771 0)
(0.988899 -0.00184216 0)
(0.98597 0.00376345 0)
(0.983555 0.001178 0)
(0.956503 0.00337306 0)
(1.02683 0.00151072 0)
(0.981672 -0.00209018 0)
(1.00691 0.000452736 0)
(0.980323 0.000609254 0)
(1.00172 -0.000555998 0)
(0.984495 0.000840299 0)
(0.996112 -0.000721057 0)
(0.988268 0.00142559 0)
(0.994377 -0.000696792 0)
(0.990989 0.00115923 0)
(0.994914 -0.0010053 0)
(0.993473 0.00103074 0)
(0.995371 -0.00135892 0)
(0.993967 0.00121666 0)
(0.994601 -0.00169235 0)
(0.992864 0.00192212 0)
(0.992092 -0.00157025 0)
(0.989396 0.0037808 0)
(0.987034 0.0021339 0)
(0.972435 0.00346459 0)
(1.01465 0.00134699 0)
(0.993905 -0.00193329 0)
(1.00084 0.000468643 0)
(0.989853 0.000654035 0)
(0.999432 -0.000592045 0)
(0.991388 0.00088304 0)
(0.996828 -0.000743399 0)
(0.993415 0.00143279 0)
(0.996616 -0.000735712 0)
(0.995039 0.00113516 0)
(0.997745 -0.00104685 0)
(0.997051 0.00101658 0)
(0.998388 -0.00136922 0)
(0.99733 0.0012147 0)
(0.997634 -0.00161671 0)
(0.996064 0.00189119 0)
(0.99511 -0.00122446 0)
(0.992549 0.00374261 0)
(0.990298 0.00304702 0)
(0.983143 0.00353014 0)
(1.00836 0.00120211 0)
(1.00026 -0.00181265 0)
(0.999403 0.0004906 0)
(0.995662 0.00067784 0)
(1.00005 -0.00061464 0)
(0.995838 0.000904734 0)
(0.998946 -0.000756547 0)
(0.997291 0.00142841 0)
(0.999249 -0.000765767 0)
(0.998377 0.00110646 0)
(1.00038 -0.00108061 0)
(1.00007 0.000997182 0)
(1.00096 -0.00136454 0)
(1.00015 0.00119686 0)
(1.00016 -0.00150392 0)
(0.998738 0.00182762 0)
(0.997623 -0.000824416 0)
(0.995231 0.00367222 0)
(0.993075 0.00389416 0)
(0.989727 0.00356386 0)
(1.0056 0.00108452 0)
(1.0031 -0.00172187 0)
(0.999753 0.000504218 0)
(0.999236 0.000690915 0)
(1.00133 -0.000631966 0)
(0.998834 0.000916053 0)
(1.00094 -0.000767927 0)
(1.0002 0.00141928 0)
(1.00141 -0.000788782 0)
(1.00094 0.00107658 0)
(1.00239 -0.00110381 0)
(1.00234 0.000971588 0)
(1.00285 -0.00134028 0)
(1.00223 0.0011594 0)
(1.00199 -0.00135309 0)
(1.00071 0.00173797 0)
(0.999486 -0.00039295 0)
(0.997281 0.00359295 0)
(0.995242 0.00464936 0)
(0.993517 0.00356937 0)
(1.00456 0.000992226 0)
(1.00419 -0.00165018 0)
(1.00038 0.000503322 0)
(1.00138 0.000699312 0)
(1.00239 -0.00064839 0)
(1.00077 0.000922347 0)
(1.00235 -0.000779747 0)
(1.00218 0.00140686 0)
(1.00288 -0.000805239 0)
(1.00268 0.00104491 0)
(1.00371 -0.0011138 0)
(1.00383 0.000935804 0)
(1.00406 -0.00129171 0)
(1.00356 0.00109684 0)
(1.00317 -0.00116405 0)
(1.00199 0.00161955 0)
(1.00072 7.80679e-05 0)
(0.998705 0.00354075 0)
(0.996811 0.00529446 0)
(0.995623 0.00355375 0)
(1.00419 0.000919469 0)
(1.00453 -0.00158864 0)
(1.0008 0.000489079 0)
(1.00258 0.000705184 0)
(1.00305 -0.000665306 0)
(1.00191 0.000925694 0)
(1.00321 -0.000791835 0)
(1.0034 0.00139047 0)
(1.00378 -0.000814834 0)
(1.00372 0.00100881 0)
(1.00448 -0.00110819 0)
(1.00468 0.000885353 0)
(1.00473 -0.00121602 0)
(1.0043 0.00100746 0)
(1.00382 -0.000944793 0)
(1.00273 0.00148572 0)
(1.00147 0.000566093 0)
(0.999637 0.00353667 0)
(0.997901 0.0058175 0)
(0.996792 0.00352323 0)
(1.00405 0.00086105 0)
(1.0046 -0.00153221 0)
(1.001 0.000465744 0)
(1.0032 0.000708735 0)
(1.0034 -0.000682889 0)
(1.00254 0.000926578 0)
(1.00368 -0.000802965 0)
(1.00408 0.00136848 0)
(1.00427 -0.00081619 0)
(1.00429 0.000964626 0)
(1.00488 -0.00108501 0)
(1.00511 0.000817037 0)
(1.00505 -0.00111415 0)
(1.00466 0.000895171 0)
(1.00414 -0.000707149 0)
(1.00312 0.00136242 0)
(1.0019 0.00101646 0)
(1.00024 0.00358434 0)
(0.998665 0.00621957 0)
(0.997459 0.00348198 0)
(1.00398 0.000813162 0)
(1.00459 -0.00147883 0)
(1.00107 0.000437444 0)
(1.00351 0.000709724 0)
(1.00357 -0.000700885 0)
(1.00286 0.000924281 0)
(1.00393 -0.000811761 0)
(1.00445 0.00133891 0)
(1.00452 -0.000807847 0)
(1.00458 0.000909356 0)
(1.00507 -0.00104332 0)
(1.00531 0.000729676 0)
(1.00519 -0.000989867 0)
(1.00482 0.000767386 0)
(1.00429 -0.000461069 0)
(1.00333 0.00126217 0)
(1.00215 0.00141396 0)
(1.00067 0.0036921 0)
(0.999236 0.00652016 0)
(0.997856 0.00343245 0)
(1.00392 0.000773428 0)
(1.00457 -0.00142819 0)
(1.0011 0.00040723 0)
(1.00365 0.000707408 0)
(1.00364 -0.000718178 0)
(1.00303 0.000917699 0)
(1.00406 -0.000816338 0)
(1.00465 0.0012998 0)
(1.00465 -0.000788008 0)
(1.00473 0.000839737 0)
(1.00516 -0.000981689 0)
(1.0054 0.000622861 0)
(1.00525 -0.000847307 0)
(1.00489 0.000634071 0)
(1.00435 -0.000219276 0)
(1.00346 0.00119932 0)
(1.00232 0.0017568 0)
(1.001 0.00385475 0)
(0.999706 0.00674361 0)
(0.998101 0.00337601 0)
(1.00385 0.000740711 0)
(1.00456 -0.00138105 0)
(1.0011 0.000377419 0)
(1.00373 0.000700818 0)
(1.00367 -0.000733041 0)
(1.00311 0.000905645 0)
(1.00412 -0.000814138 0)
(1.00476 0.0012485 0)
(1.00471 -0.000753743 0)
(1.00481 0.000752555 0)
(1.0052 -0.000900399 0)
(1.00544 0.000499916 0)
(1.00526 -0.000692142 0)
(1.00493 0.000500126 0)
(1.00438 1.72152e-05 0)
(1.00357 0.00118903 0)
(1.00247 0.00205448 0)
(1.0013 0.00405982 0)
(1.00013 0.00691606 0)
(0.998264 0.00331345 0)
(1.00378 0.000714517 0)
(1.00456 -0.0013384 0)
(1.0011 0.000349775 0)
(1.00376 0.000688831 0)
(1.00367 -0.000743518 0)
(1.00316 0.000886202 0)
(1.00415 -0.000802483 0)
(1.00482 0.00118214 0)
(1.00473 -0.00070296 0)
(1.00485 0.000648195 0)
(1.00521 -0.000803796 0)
(1.00548 0.000369233 0)
(1.00527 -0.000537349 0)
(1.00497 0.000381969 0)
(1.00441 0.00023268 0)
(1.00368 0.00122796 0)
(1.00263 0.00231107 0)
(1.00159 0.00428585 0)
(1.00052 0.00705979 0)
(0.998381 0.00324523 0)
(1.00369 0.00069481 0)
(1.00456 -0.00130151 0)
(1.0011 0.00032615 0)
(1.00377 0.000669886 0)
(1.00366 -0.000747992 0)
(1.0032 0.000857118 0)
(1.00416 -0.000779139 0)
(1.00486 0.00109986 0)
(1.00473 -0.000638531 0)
(1.00488 0.000532471 0)
(1.00521 -0.000698735 0)
(1.0055 0.000237261 0)
(1.00527 -0.000392199 0)
(1.00501 0.000297582 0)
(1.00444 0.000407632 0)
(1.00379 0.00130534 0)
(1.0028 0.00253318 0)
(1.00187 0.00451391 0)
(1.00091 0.00719142 0)
(0.998477 0.00317146 0)
(1.00359 0.000682124 0)
(1.00456 -0.00127207 0)
(1.00109 0.000308467 0)
(1.00377 0.000642913 0)
(1.00365 -0.000745363 0)
(1.00322 0.000816726 0)
(1.00416 -0.000743538 0)
(1.00488 0.00100235 0)
(1.00471 -0.00056259 0)
(1.0049 0.000405841 0)
(1.0052 -0.000587317 0)
(1.00553 0.00010756 0)
(1.00527 -0.000264758 0)
(1.00506 0.000243617 0)
(1.00449 0.00054953 0)
(1.00391 0.0014216 0)
(1.00298 0.00273728 0)
(1.00217 0.00473251 0)
(1.00129 0.007318 0)
(0.998564 0.00309212 0)
(1.00349 0.000677103 0)
(1.00457 -0.00125153 0)
(1.00109 0.000298029 0)
(1.00377 0.000606402 0)
(1.00363 -0.000732705 0)
(1.00323 0.00076283 0)
(1.00415 -0.000694589 0)
(1.00491 0.000889142 0)
(1.00469 -0.000475498 0)
(1.00492 0.000270486 0)
(1.00518 -0.000476842 0)
(1.00556 -1.51061e-05 0)
(1.00527 -0.000162704 0)
(1.00511 0.000216672 0)
(1.00455 0.000666747 0)
(1.00405 0.00156372 0)
(1.00317 0.00293362 0)
(1.00248 0.00493358 0)
(1.00166 0.00743777 0)
(0.998645 0.00300691 0)
(1.00338 0.000680852 0)
(1.00457 -0.00124196 0)
(1.00108 0.000297035 0)
(1.00376 0.000556694 0)
(1.00361 -0.000707977 0)
(1.00324 0.000695736 0)
(1.00414 -0.000632655 0)
(1.00493 0.000760613 0)
(1.00466 -0.000381161 0)
(1.00493 0.000137063 0)
(1.00516 -0.00038513 0)
(1.00559 -0.000121233 0)
(1.00528 -8.81144e-05 0)
(1.00517 0.000217784 0)
(1.00462 0.000770533 0)
(1.0042 0.0017208 0)
(1.00339 0.00313687 0)
(1.0028 0.00512402 0)
(1.00204 0.0075536 0)
(0.998721 0.00291586 0)
(1.00328 0.00069413 0)
(1.00458 -0.00124519 0)
(1.00108 0.000306801 0)
(1.00374 0.000492689 0)
(1.00359 -0.000673043 0)
(1.00326 0.000617263 0)
(1.00412 -0.000559886 0)
(1.00494 0.000622802 0)
(1.00463 -0.000287852 0)
(1.00494 5.88766e-06 0)
(1.00515 -0.000320758 0)
(1.00561 -0.000201564 0)
(1.00529 -4.04401e-05 0)
(1.00523 0.000239486 0)
(1.00471 0.000868846 0)
(1.00436 0.00188358 0)
(1.00361 0.00335367 0)
(1.00312 0.00531277 0)
(1.00242 0.00766916 0)
(0.998791 0.00281909 0)
(1.00318 0.00071798 0)
(1.00457 -0.00126185 0)
(1.00109 0.000328192 0)
(1.00372 0.000417358 0)
(1.00358 -0.000629188 0)
(1.00326 0.000526515 0)
(1.00411 -0.000478662 0)
(1.00496 0.000482689 0)
(1.0046 -0.000204554 0)
(1.00495 -0.000110259 0)
(1.00514 -0.000280194 0)
(1.00564 -0.000256065 0)
(1.00532 -1.07474e-05 0)
(1.00529 0.000264638 0)
(1.00482 0.00095705 0)
(1.00453 0.00203578 0)
(1.00385 0.00357557 0)
(1.00345 0.00549732 0)
(1.00281 0.0077857 0)
(0.998853 0.00271419 0)
(1.00309 0.000757102 0)
(1.00456 -0.00129638 0)
(1.0011 0.000364626 0)
(1.00369 0.0003264 0)
(1.00357 -0.000572209 0)
(1.00326 0.000424387 0)
(1.00411 -0.000393822 0)
(1.00497 0.000345133 0)
(1.00458 -0.000140329 0)
(1.00495 -0.000197877 0)
(1.00514 -0.000263878 0)
(1.00566 -0.000296917 0)
(1.00535 6.522e-06 0)
(1.00536 0.000289063 0)
(1.00493 0.00102871 0)
(1.00472 0.00216812 0)
(1.00411 0.00379255 0)
(1.00379 0.005684 0)
(1.0032 0.00792635 0)
(0.998903 0.00260462 0)
(1.003 0.000805792 0)
(1.00453 -0.00134563 0)
(1.00113 0.00040994 0)
(1.00365 0.000223965 0)
(1.00357 -0.000511856 0)
(1.00326 0.000324075 0)
(1.00411 -0.000323595 0)
(1.00497 0.000228401 0)
(1.00457 -0.000120207 0)
(1.00494 -0.000247704 0)
(1.00514 -0.000283956 0)
(1.00567 -0.000323332 0)
(1.00539 -1.32311e-05 0)
(1.00542 0.000337368 0)
(1.00507 0.00105269 0)
(1.00492 0.00225935 0)
(1.00439 0.00390265 0)
(1.00413 0.00585224 0)
(1.00359 0.00808996 0)
(0.998942 0.00248868 0)
(1.00293 0.000868535 0)
(1.00449 -0.00141383 0)
(1.00116 0.000466515 0)
(1.0036 0.000112003 0)
(1.00358 -0.000451209 0)
(1.00324 0.000229919 0)
(1.00412 -0.000269037 0)
(1.00496 0.000130973 0)
(1.00456 -0.000121371 0)
(1.00493 -0.000283542 0)
(1.00515 -0.000305161 0)
(1.00568 -0.000344809 0)
(1.00545 -5.45267e-05 0)
(1.00549 0.000362091 0)
(1.00521 0.00105856 0)
(1.00513 0.00226662 0)
(1.0047 0.00392455 0)
(1.0045 0.00587088 0)
(1.00401 0.00807974 0)
(0.998971 0.0023627 0)
(1.00286 0.000952136 0)
(1.00444 -0.00150418 0)
(1.0012 0.000536466 0)
(1.00353 -1.2487e-05 0)
(1.00359 -0.000390772 0)
(1.00322 0.000146108 0)
(1.00413 -0.000238227 0)
(1.00494 5.59843e-05 0)
(1.00456 -0.00014384 0)
(1.0049 -0.000303487 0)
(1.00516 -0.000340023 0)
(1.00569 -0.000352965 0)
(1.00551 -8.13884e-05 0)
(1.00556 0.000328704 0)
(1.00536 0.00107864 0)
(1.00535 0.00231228 0)
(1.005 0.00400876 0)
(1.00487 0.00591846 0)
(1.00445 0.0081077 0)
(0.998992 0.00223484 0)
(1.00279 0.0010439 0)
(1.00438 -0.00160269 0)
(1.00125 0.00060264 0)
(1.00346 -0.000131363 0)
(1.00361 -0.00034968 0)
(1.00319 8.35941e-05 0)
(1.00414 -0.00024112 0)
(1.00492 4.79224e-06 0)
(1.00456 -0.000181111 0)
(1.00487 -0.000326871 0)
(1.00518 -0.000358664 0)
(1.00569 -0.000373196 0)
(1.00556 -5.60334e-05 0)
(1.00563 0.000440674 0)
(1.00553 0.00121952 0)
(1.00558 0.00250743 0)
(1.00533 0.00417762 0)
(1.00524 0.00608925 0)
(1.00491 0.00817637 0)
(0.99901 0.00209792 0)
(1.00272 0.00115309 0)
(1.00431 -0.00171302 0)
(1.00129 0.000671215 0)
(1.00338 -0.000242752 0)
(1.00364 -0.00033204 0)
(1.00315 5.10324e-05 0)
(1.00416 -0.000269486 0)
(1.00489 -2.59163e-05 0)
(1.00457 -0.000207202 0)
(1.00484 -0.000361359 0)
(1.00519 -0.000327256 0)
(1.00569 -0.000360334 0)
(1.00564 5.16051e-05 0)
(1.00571 0.00067429 0)
(1.00571 0.00145359 0)
(1.00581 0.00269686 0)
(1.00567 0.00435428 0)
(1.00562 0.00624661 0)
(1.00536 0.00824826 0)
(0.999029 0.00195585 0)
(1.00264 0.0012717 0)
(1.00425 -0.00183147 0)
(1.00134 0.000729767 0)
(1.0033 -0.000335656 0)
(1.00366 -0.000347371 0)
(1.00311 4.55024e-05 0)
(1.00417 -0.000315887 0)
(1.00486 -4.88861e-05 0)
(1.00457 -0.000223126 0)
(1.00482 -0.000366738 0)
(1.00521 -0.000273102 0)
(1.00571 -0.000244517 0)
(1.00574 0.000183114 0)
(1.00581 0.000862858 0)
(1.00588 0.00165937 0)
(1.00606 0.00282863 0)
(1.00602 0.00446547 0)
(1.00601 0.00633159 0)
(1.0058 0.00826518 0)
(0.999052 0.00181157 0)
(1.00255 0.00139565 0)
(1.00418 -0.00194935 0)
(1.00138 0.000758957 0)
(1.00321 -0.000394811 0)
(1.00368 -0.000397206 0)
(1.00307 6.33048e-05 0)
(1.00418 -0.000363334 0)
(1.00484 -7.99988e-05 0)
(1.00456 -0.000195529 0)
(1.0048 -0.000353897 0)
(1.00524 -0.000166572 0)
(1.00572 -8.41796e-05 0)
(1.00583 0.000297868 0)
(1.00592 0.00102955 0)
(1.00606 0.00186616 0)
(1.0063 0.00297159 0)
(1.00638 0.00454527 0)
(1.00641 0.00637171 0)
(1.00624 0.00823619 0)
(0.999082 0.00166048 0)
(1.00244 0.00153041 0)
(1.00411 -0.00206289 0)
(1.00142 0.000759152 0)
(1.00313 -0.000428734 0)
(1.0037 -0.000477681 0)
(1.00304 0.00010114 0)
(1.00417 -0.000400682 0)
(1.00482 -9.81903e-05 0)
(1.00456 -0.000112004 0)
(1.00478 -0.000300847 0)
(1.00527 -3.22041e-05 0)
(1.00574 8.34835e-05 0)
(1.00592 0.000408598 0)
(1.00604 0.00115872 0)
(1.00624 0.00205984 0)
(1.00655 0.00311747 0)
(1.00673 0.00460186 0)
(1.00682 0.00635968 0)
(1.00668 0.00815396 0)
(0.99912 0.00151072 0)
(1.00232 0.00165839 0)
(1.00404 -0.00215408 0)
(1.00145 0.000718527 0)
(1.00304 -0.000432501 0)
(1.00372 -0.000595052 0)
(1.00301 0.000141862 0)
(1.00416 -0.000412365 0)
(1.00482 -9.81439e-05 0)
(1.00455 3.41727e-05 0)
(1.00478 -0.000201066 0)
(1.0053 8.4821e-05 0)
(1.00577 0.000245988 0)
(1.00601 0.000524765 0)
(1.00618 0.00125108 0)
(1.00643 0.00222411 0)
(1.00679 0.00326587 0)
(1.00709 0.00465088 0)
(1.00723 0.00630868 0)
(1.00711 0.00802588 0)
(0.999164 0.00136014 0)
(1.00219 0.00177583 0)
(1.00397 -0.00220982 0)
(1.00148 0.000636979 0)
(1.00295 -0.000411187 0)
(1.00373 -0.000725454 0)
(1.00299 0.000187518 0)
(1.00415 -0.000397651 0)
(1.00483 -5.94439e-05 0)
(1.00454 0.000213487 0)
(1.00476 -8.48168e-05 0)
(1.00533 0.000167505 0)
(1.00579 0.000404241 0)
(1.0061 0.000661657 0)
(1.00632 0.00133244 0)
(1.00663 0.00234971 0)
(1.00704 0.00340847 0)
(1.00743 0.00469847 0)
(1.00764 0.00623289 0)
(1.00754 0.00786067 0)
(0.999213 0.00120992 0)
(1.00205 0.00187976 0)
(1.00389 -0.00222507 0)
(1.00151 0.000520454 0)
(1.00286 -0.000378918 0)
(1.00374 -0.000853505 0)
(1.00298 0.000234145 0)
(1.00413 -0.000313943 0)
(1.00485 -1.01257e-05 0)
(1.00454 0.000374031 0)
(1.00475 3.29414e-05 0)
(1.00537 0.000225464 0)
(1.00583 0.000558444 0)
(1.00617 0.000821374 0)
(1.00648 0.00142009 0)
(1.00685 0.00243296 0)
(1.00729 0.00352434 0)
(1.00775 0.00474183 0)
(1.00803 0.00614739 0)
(1.00797 0.00767058 0)
(0.999266 0.00106538 0)
(1.0019 0.00196269 0)
(1.0038 -0.00219179 0)
(1.00153 0.000377038 0)
(1.00276 -0.000336128 0)
(1.00375 -0.000976266 0)
(1.00299 0.000295766 0)
(1.0041 -0.000172918 0)
(1.00488 1.52323e-05 0)
(1.00454 0.000516982 0)
(1.00473 0.000173758 0)
(1.00541 0.000273786 0)
(1.00588 0.000694557 0)
(1.00625 0.000989749 0)
(1.00663 0.00151524 0)
(1.00707 0.00248326 0)
(1.00756 0.00360176 0)
(1.00807 0.00477882 0)
(1.00841 0.00606771 0)
(1.00838 0.00747203 0)
(0.999321 0.000922483 0)
(1.00175 0.00202632 0)
(1.0037 -0.0021215 0)
(1.00156 0.000231078 0)
(1.00267 -0.000286592 0)
(1.00376 -0.0010609 0)
(1.003 0.000367041 0)
(1.00407 -2.23699e-05 0)
(1.00491 2.45089e-05 0)
(1.00454 0.000639221 0)
(1.0047 0.000336776 0)
(1.00545 0.000323259 0)
(1.00594 0.000800617 0)
(1.00632 0.00116132 0)
(1.00677 0.00162507 0)
(1.0073 0.00251958 0)
(1.00783 0.00364251 0)
(1.00838 0.0048035 0)
(1.00878 0.0059967 0)
(1.00878 0.00727456 0)
(0.999376 0.000784522 0)
(1.00159 0.00206269 0)
(1.00359 -0.00202589 0)
(1.00159 9.48048e-05 0)
(1.00258 -0.000211069 0)
(1.00377 -0.00110423 0)
(1.00304 0.000420661 0)
(1.00403 0.000144998 0)
(1.00494 2.98301e-05 0)
(1.00456 0.00072828 0)
(1.00467 0.000515464 0)
(1.00548 0.000387912 0)
(1.00602 0.000876276 0)
(1.0064 0.00132974 0)
(1.00691 0.00175526 0)
(1.00752 0.00255354 0)
(1.00811 0.00364863 0)
(1.0087 0.00480238 0)
(1.00913 0.0059228 0)
(1.00916 0.00707761 0)
(0.999432 0.000656997 0)
(1.00144 0.00206081 0)
(1.00347 -0.00190624 0)
(1.00162 -2.9538e-05 0)
(1.00249 -0.000105985 0)
(1.00378 -0.00112028 0)
(1.00309 0.000446637 0)
(1.00399 0.000325439 0)
(1.00497 4.80502e-05 0)
(1.00459 0.000791212 0)
(1.00464 0.000709657 0)
(1.0055 0.000480565 0)
(1.00611 0.000925757 0)
(1.0065 0.0014802 0)
(1.00704 0.00190392 0)
(1.00775 0.00259755 0)
(1.00841 0.00362982 0)
(1.00902 0.00476811 0)
(1.00947 0.00583509 0)
(1.00952 0.00687998 0)
(0.999486 0.000535907 0)
(1.00129 0.00202867 0)
(1.00334 -0.00176691 0)
(1.00165 -0.000134017 0)
(1.0024 1.39691e-05 0)
(1.00378 -0.00110219 0)
(1.00315 0.000442964 0)
(1.00395 0.000513773 0)
(1.00499 8.40489e-05 0)
(1.00463 0.000821346 0)
(1.00461 0.000901563 0)
(1.00552 0.000603725 0)
(1.00621 0.000957409 0)
(1.00661 0.00159667 0)
(1.00717 0.0020574 0)
(1.00796 0.00266098 0)
(1.0087 0.00359921 0)
(1.00934 0.00470044 0)
(1.0098 0.00572583 0)
(1.00987 0.00667974 0)
(0.999539 0.000421052 0)
(1.00115 0.00197439 0)
(1.00321 -0.0016183 0)
(1.00169 -0.000218836 0)
(1.00231 0.000152521 0)
(1.00378 -0.00103892 0)
(1.00323 0.000426002 0)
(1.00391 0.000705168 0)
(1.005 0.000148511 0)
(1.0047 0.000825702 0)
(1.0046 0.00107835 0)
(1.00552 0.000758171 0)
(1.00631 0.000990207 0)
(1.00674 0.00167422 0)
(1.0073 0.0021981 0)
(1.00815 0.00274276 0)
(1.00899 0.00356793 0)
(1.00967 0.00460501 0)
(1.01014 0.00559196 0)
(1.01019 0.00647458 0)
(0.999591 0.000315852 0)
(1.00101 0.00190107 0)
(1.00307 -0.00147482 0)
(1.00174 -0.000290655 0)
(1.00224 0.000302469 0)
(1.00378 -0.000930121 0)
(1.00333 0.000401595 0)
(1.00388 0.000888778 0)
(1.005 0.000247455 0)
(1.00478 0.000809912 0)
(1.0046 0.00122496 0)
(1.00551 0.00093583 0)
(1.00642 0.00104166 0)
(1.00689 0.00171551 0)
(1.00744 0.00230921 0)
(1.00834 0.00282575 0)
(1.00927 0.00353653 0)
(1.01 0.00448513 0)
(1.01047 0.00542896 0)
(1.01051 0.00625613 0)
(0.999641 0.000215625 0)
(1.00088 0.00181333 0)
(1.00293 -0.00133987 0)
(1.00179 -0.000359335 0)
(1.00217 0.000476405 0)
(1.00376 -0.000767629 0)
(1.00344 0.000375062 0)
(1.00386 0.00105286 0)
(1.00499 0.00038229 0)
(1.00486 0.000789331 0)
(1.00462 0.00133917 0)
(1.00549 0.00113089 0)
(1.00651 0.00112375 0)
(1.00706 0.00173474 0)
(1.00761 0.00238362 0)
(1.00852 0.00289647 0)
(1.00953 0.00350786 0)
(1.01033 0.00435217 0)
(1.0108 0.0052419 0)
(1.01082 0.00602231 0)
(0.999688 0.000126191 0)
(1.00075 0.00170648 0)
(1.00278 -0.00121813 0)
(1.00185 -0.000428885 0)
(1.00212 0.000689432 0)
(1.00373 -0.000531916 0)
(1.00355 0.000360786 0)
(1.00386 0.00118524 0)
(1.00497 0.000541895 0)
(1.00496 0.000775108 0)
(1.00467 0.00141232 0)
(1.00548 0.00132085 0)
(1.00659 0.00122747 0)
(1.00723 0.00174252 0)
(1.00779 0.00241866 0)
(1.0087 0.00294676 0)
(1.00977 0.0034832 0)
(1.01064 0.00421798 0)
(1.01113 0.00503942 0)
(1.01112 0.00577457 0)
(0.999733 4.66692e-05 0)
(1.00064 0.00157901 0)
(1.00263 -0.00111839 0)
(1.00193 -0.000461246 0)
(1.00209 0.000910742 0)
(1.00369 -0.000243679 0)
(1.00367 0.000374253 0)
(1.00388 0.00129865 0)
(1.00494 0.000733532 0)
(1.00505 0.000791095 0)
(1.00475 0.00145239 0)
(1.00548 0.00149593 0)
(1.00665 0.00135452 0)
(1.00741 0.00175789 0)
(1.00799 0.00242656 0)
(1.00889 0.00297538 0)
(1.00999 0.00345984 0)
(1.01094 0.00408744 0)
(1.01146 0.00482582 0)
(1.01143 0.00551047 0)
(0.999774 -1.44958e-05 0)
(1.00054 0.0014332 0)
(1.00249 -0.00101193 0)
(1.00203 -0.00047506 0)
(1.00208 0.00109819 0)
(1.00364 5.26178e-05 0)
(1.00378 0.000411483 0)
(1.00391 0.00139581 0)
(1.0049 0.000953678 0)
(1.00513 0.00085237 0)
(1.00485 0.00147419 0)
(1.0055 0.00164725 0)
(1.0067 0.0014979 0)
(1.00758 0.00178694 0)
(1.0082 0.00241312 0)
(1.00908 0.00297565 0)
(1.01021 0.00342775 0)
(1.01121 0.00395966 0)
(1.01177 0.00460638 0)
(1.01172 0.00523352 0)
(0.999814 -5.42798e-05 0)
(1.00044 0.00133253 0)
(1.00235 -0.000812327 0)
(1.00213 -0.000520512 0)
(1.0021 0.00117353 0)
(1.00357 0.000322217 0)
(1.00388 0.000433371 0)
(1.00397 0.00143577 0)
(1.00486 0.00115862 0)
(1.00519 0.000941691 0)
(1.00497 0.00148116 0)
(1.00553 0.00176163 0)
(1.00674 0.00164133 0)
(1.00773 0.00182822 0)
(1.00842 0.00238275 0)
(1.00929 0.00294213 0)
(1.01042 0.00337497 0)
(1.01147 0.00382761 0)
(1.01207 0.00438113 0)
(1.01202 0.00494368 0)
(0.999849 -0.000119201 0)
(1.00036 0.00128745 0)
(1.0022 -0.000547858 0)
(1.00222 -0.000538111 0)
(1.00214 0.00119867 0)
(1.0035 0.000608706 0)
(1.00397 0.000498322 0)
(1.00405 0.00145518 0)
(1.00483 0.00135456 0)
(1.00524 0.00106338 0)
(1.00509 0.00148287 0)
(1.00558 0.00183004 0)
(1.00678 0.00176306 0)
(1.00786 0.00186804 0)
(1.00862 0.00233194 0)
(1.00949 0.00286536 0)
(1.01061 0.00328392 0)
(1.0117 0.00367514 0)
(1.01235 0.00414207 0)
(1.01229 0.00463649 0)
(0.999877 -0.000130192 0)
(1.0003 0.00117586 0)
(1.00205 -0.000306439 0)
(1.0023 -0.000486566 0)
(1.00221 0.00122285 0)
(1.00343 0.000883494 0)
(1.00403 0.000611235 0)
(1.00413 0.0014664 0)
(1.0048 0.00153733 0)
(1.00526 0.00123126 0)
(1.0052 0.00151843 0)
(1.00565 0.00188904 0)
(1.00681 0.00188887 0)
(1.00797 0.00193713 0)
(1.00882 0.0023035 0)
(1.0097 0.00278574 0)
(1.01081 0.00318262 0)
(1.01191 0.00352363 0)
(1.01259 0.00391196 0)
(1.01255 0.00433645 0)
(0.999906 -0.000120894 0)
(1.00024 0.00103365 0)
(1.00191 -9.44837e-05 0)
(1.00238 -0.000404406 0)
(1.00229 0.00121924 0)
(1.00336 0.00113823 0)
(1.00407 0.000771047 0)
(1.00423 0.00148601 0)
(1.0048 0.00169377 0)
(1.00527 0.00142318 0)
(1.0053 0.00158396 0)
(1.00573 0.00193173 0)
(1.00685 0.00198717 0)
(1.00806 0.00200431 0)
(1.00899 0.00227771 0)
(1.0099 0.00269168 0)
(1.01099 0.00305499 0)
(1.01209 0.0033526 0)
(1.01281 0.00367199 0)
(1.01279 0.00402951 0)
(0.999928 -0.000135964 0)
(1.00021 0.000980982 0)
(1.00177 0.000137134 0)
(1.00243 -0.000304764 0)
(1.00239 0.00120277 0)
(1.00331 0.00138292 0)
(1.00409 0.000970621 0)
(1.00432 0.00151506 0)
(1.0048 0.00180772 0)
(1.00526 0.00160223 0)
(1.00538 0.00165996 0)
(1.00581 0.00195172 0)
(1.00688 0.00203609 0)
(1.00812 0.00204217 0)
(1.00914 0.00223573 0)
(1.01008 0.00257637 0)
(1.01116 0.00289521 0)
(1.01226 0.00315054 0)
(1.01301 0.00340803 0)
(1.013 0.0037018 0)
(0.999946 -0.000121333 0)
(1.00018 0.000970268 0)
(1.00163 0.000366303 0)
(1.00247 -0.000188834 0)
(1.0025 0.00115204 0)
(1.00326 0.00156658 0)
(1.00408 0.00116925 0)
(1.00439 0.0015464 0)
(1.00482 0.00189056 0)
(1.00525 0.00177673 0)
(1.00543 0.00177038 0)
(1.00587 0.00199041 0)
(1.00692 0.00207646 0)
(1.00817 0.00207516 0)
(1.00925 0.00220195 0)
(1.01023 0.00246962 0)
(1.01131 0.00273391 0)
(1.0124 0.00294128 0)
(1.01317 0.00313721 0)
(1.01318 0.0033661 0)
(0.999961 -9.11887e-05 0)
(1.00016 0.000897642 0)
(1.00149 0.000558433 0)
(1.00247 -1.78061e-05 0)
(1.00261 0.0011378 0)
(1.00324 0.00175015 0)
(1.00404 0.00142504 0)
(1.00445 0.00163611 0)
(1.00484 0.00197226 0)
(1.00523 0.00194333 0)
(1.00545 0.00189901 0)
(1.00592 0.00203324 0)
(1.00694 0.00209325 0)
(1.0082 0.00207453 0)
(1.00934 0.00214593 0)
(1.01035 0.00234672 0)
(1.01143 0.00255567 0)
(1.01251 0.00271448 0)
(1.01329 0.00285157 0)
(1.01333 0.00301673 0)
(0.999972 -4.57869e-05 0)
(1.00015 0.00079774 0)
(1.00136 0.000746439 0)
(1.00246 0.000213822 0)
(1.00272 0.00116608 0)
(1.00323 0.00191142 0)
(1.00399 0.00170038 0)
(1.00447 0.00176586 0)
(1.00486 0.00204829 0)
(1.00521 0.00208911 0)
(1.00545 0.0020455 0)
(1.00594 0.00209825 0)
(1.00694 0.0021148 0)
(1.00821 0.00206345 0)
(1.00939 0.00208358 0)
(1.01044 0.00221659 0)
(1.01152 0.0023696 0)
(1.01259 0.00247687 0)
(1.01338 0.00255577 0)
(1.01344 0.00265599 0)
(0.99998 -4.33601e-06 0)
(1.00016 0.000746108 0)
(1.00126 0.00092809 0)
(1.00243 0.000456553 0)
(1.00283 0.00121115 0)
(1.00324 0.00203197 0)
(1.00393 0.00197009 0)
(1.00447 0.00193618 0)
(1.00488 0.0021411 0)
(1.00519 0.00222055 0)
(1.00544 0.00219977 0)
(1.00592 0.00218692 0)
(1.00691 0.00214335 0)
(1.00819 0.00204262 0)
(1.00941 0.00200569 0)
(1.0105 0.00206608 0)
(1.01157 0.00216177 0)
(1.01263 0.002216 0)
(1.01342 0.00224045 0)
(1.0135 0.00227775 0)
(0.999985 4.43425e-05 0)
(1.00017 0.000728757 0)
(1.00117 0.00108325 0)
(1.00238 0.00071967 0)
(1.00292 0.00128774 0)
(1.00327 0.00214027 0)
(1.00387 0.00222482 0)
(1.00444 0.00214684 0)
(1.00488 0.00225106 0)
(1.00517 0.00233584 0)
(1.0054 0.00233246 0)
(1.00588 0.00228668 0)
(1.00685 0.00217714 0)
(1.00813 0.00202132 0)
(1.00939 0.00191581 0)
(1.01051 0.00190365 0)
(1.01159 0.00193504 0)
(1.01263 0.00193803 0)
(1.01341 0.00191019 0)
(1.01351 0.00188832 0)
(0.999987 0.000103329 0)
(1.00019 0.000733453 0)
(1.0011 0.00121461 0)
(1.00232 0.000993885 0)
(1.00299 0.00140005 0)
(1.00332 0.00224049 0)
(1.00381 0.00246024 0)
(1.00437 0.00238753 0)
(1.00484 0.00239359 0)
(1.00513 0.00244866 0)
(1.00535 0.00244786 0)
(1.0058 0.00238459 0)
(1.00675 0.00221632 0)
(1.00802 0.0019946 0)
(1.00931 0.00180732 0)
(1.01047 0.00171474 0)
(1.01156 0.00167227 0)
(1.01258 0.00162034 0)
(1.01335 0.00154153 0)
(1.01346 0.00146425 0)
(0.999989 0.000147507 0)
(1.0002 0.000774063 0)
(1.00104 0.00134581 0)
(1.00225 0.00127156 0)
(1.00303 0.00157191 0)
(1.00337 0.0023544 0)
(1.00376 0.00269287 0)
(1.00428 0.00264859 0)
(1.00478 0.00257979 0)
(1.00507 0.00257704 0)
(1.00528 0.00256722 0)
(1.00569 0.00248856 0)
(1.0066 0.00228019 0)
(1.00785 0.00198757 0)
(1.00917 0.00171515 0)
(1.01037 0.00153026 0)
(1.01147 0.00141042 0)
(1.01248 0.00129549 0)
(1.01324 0.00116684 0)
(1.01336 0.00103601 0)
(0.999989 0.000210018 0)
(1.00022 0.000798824 0)
(1.001 0.00146615 0)
(1.00217 0.00155606 0)
(1.00305 0.00178547 0)
(1.00341 0.00248318 0)
(1.00371 0.00290962 0)
(1.00417 0.00291998 0)
(1.00467 0.00280431 0)
(1.00498 0.00273861 0)
(1.00518 0.00269725 0)
(1.00555 0.00260009 0)
(1.0064 0.00235675 0)
(1.00762 0.00199482 0)
(1.00896 0.00162988 0)
(1.01019 0.00134295 0)
(1.01131 0.00113346 0)
(1.01232 0.000946865 0)
(1.01306 0.000759775 0)
(1.01318 0.000575196 0)
(0.999988 0.000274526 0)
(1.00024 0.000844206 0)
(1.00098 0.00158185 0)
(1.0021 0.00183412 0)
(1.00304 0.0020285 0)
(1.00345 0.00263371 0)
(1.00368 0.00312061 0)
(1.00405 0.00320304 0)
(1.00453 0.00306503 0)
(1.00486 0.00293207 0)
(1.00505 0.00283776 0)
(1.00538 0.00270231 0)
(1.00615 0.00242219 0)
(1.00732 0.00199348 0)
(1.00866 0.00153484 0)
(1.00992 0.00113673 0)
(1.01107 0.000826659 0)
(1.01207 0.000554562 0)
(1.01281 0.000302813 0)
(1.01294 5.97495e-05 0)
(0.999988 0.000320552 0)
(1.00026 0.000948759 0)
(1.00096 0.00171123 0)
(1.00202 0.00210537 0)
(1.00301 0.00230634 0)
(1.00347 0.00282361 0)
(1.00365 0.00333514 0)
(1.00392 0.0034991 0)
(1.00435 0.00335963 0)
(1.00468 0.00317068 0)
(1.00488 0.00300864 0)
(1.00516 0.00282845 0)
(1.00584 0.00250287 0)
(1.00695 0.00201573 0)
(1.00827 0.00146156 0)
(1.00955 0.000944688 0)
(1.01073 0.000514853 0)
(1.01174 0.000139685 0)
(1.01248 -0.00019568 0)
(1.01261 -0.000513703 0)
(0.999987 0.00036418 0)
(1.00026 0.00107872 0)
(1.00095 0.00184416 0)
(1.00195 0.00236851 0)
(1.00295 0.00260971 0)
(1.00346 0.00305316 0)
(1.00361 0.00356531 0)
(1.00378 0.00380163 0)
(1.00414 0.00369612 0)
(1.00445 0.00345941 0)