/*--------------------------------*- C++ -*----------------------------------*\
| =========                 |                                                 |
| \\      /  F ield         | OpenFOAM: The Open Source CFD Toolbox           |
|  \\    /   O peration     | Version:  v2012                                 |
|   \\  /    A nd           | Website:  www.openfoam.com                      |
|    \\/     M anipulation  |                                                 |
\*---------------------------------------------------------------------------*/
FoamFile
{
    version     2.0;
    format      ascii;
    class       surfaceScalarField;
    location    "1.1";
    object      phi;
}
// * * * * * * * * * * * * * * * * * * * * * * * * * * * * * * * * * * * * * //

dimensions      [0 3 -1 0 0 0 0];
oriented        oriented;


internalField   nonuniform List<scalar> 
34900
(
1.17542e-06
-2.94528e-09
1.16174e-06
-6.86693e-08
1.17279e-06
2.23045e-10
1.16527e-06
-5.79337e-08
1.17333e-06
1.09862e-07
1.16924e-06
5.62513e-08
1.1724e-06
9.34579e-08
1.16496e-06
1.06489e-08
1.16794e-06
5.61381e-08
1.15945e-06
-3.98865e-08
1.16405e-06
1.0089e-07
1.15293e-06
-8.37082e-08
1.16058e-06
1.57731e-07
1.14464e-06
-1.14011e-07
1.15532e-06
1.6492e-07
1.13464e-06
-9.66617e-08
1.14687e-06
1.2494e-07
1.12292e-06
-7.08371e-08
1.13266e-06
1.00639e-07
-5.63337e-08
1.08199e-06
1.23031e-06
-8.99656e-09
1.21813e-06
-5.64895e-08
1.22794e-06
-9.58494e-09
1.22243e-06
-5.24209e-08
1.22808e-06
1.04205e-07
1.22715e-06
5.71893e-08
1.22715e-06
9.34516e-08
1.22336e-06
1.44407e-08
1.22237e-06
5.71299e-08
1.21822e-06
-3.57383e-08
1.21701e-06
1.02099e-07
1.21223e-06
-7.8931e-08
1.21116e-06
1.58805e-07
1.20547e-06
-1.08321e-07
1.20271e-06
1.67683e-07
1.19937e-06
-9.33216e-08
1.19094e-06
1.33373e-07
1.19334e-06
-7.32412e-08
1.17296e-06
1.21014e-07
-5.09208e-08
1.16755e-06
1.28643e-06
-1.26398e-08
1.27877e-06
-4.88295e-08
1.28479e-06
-1.56047e-08
1.2837e-06
-5.13297e-08
1.2847e-06
1.03199e-07
1.28903e-06
5.28637e-08
1.28433e-06
9.81456e-08
1.28584e-06
1.29363e-08
1.27952e-06
6.3447e-08
1.28075e-06
-3.69696e-08
1.27408e-06
1.08773e-07
1.27476e-06
-7.96165e-08
1.26902e-06
1.64552e-07
1.26863e-06
-1.07936e-07
1.26324e-06
1.73078e-07
1.26337e-06
-9.34557e-08
1.25728e-06
1.3946e-07
1.25619e-06
-7.21453e-08
1.24913e-06
1.28068e-07
-3.15157e-08
1.22973e-06
1.34451e-06
-1.30453e-08
1.34249e-06
-4.68063e-08
1.34372e-06
-1.6844e-08
1.34737e-06
-5.49799e-08
1.344e-06
1.0657e-07
1.35246e-06
4.44023e-08
1.34494e-06
1.05675e-07
1.34961e-06
8.25701e-09
1.34102e-06
7.20415e-08
1.34401e-06
-3.99633e-08
1.33687e-06
1.15918e-07
1.33795e-06
-8.07002e-08
1.33413e-06
1.68376e-07
1.33282e-06
-1.06627e-07
1.33153e-06
1.7437e-07
1.3288e-06
-9.07226e-08
1.32869e-06
1.39563e-07
1.32223e-06
-6.56809e-08
1.32201e-06
1.28289e-07
-8.54202e-09
1.29903e-06
1.40568e-06
-1.03715e-08
1.40832e-06
-4.94462e-08
1.40551e-06
-1.40329e-08
1.41202e-06
-6.14887e-08
1.40664e-06
1.1195e-07
1.41628e-06
3.47609e-08
1.40939e-06
1.1256e-07
1.41414e-06
3.51216e-09
1.40692e-06
7.92628e-08
1.40861e-06
-4.16505e-08
1.40407e-06
1.20449e-07
1.40335e-06
-7.99724e-08
1.40275e-06
1.6897e-07
1.39966e-06
-1.0354e-07
1.40144e-06
1.72596e-07
1.39673e-06
-8.60183e-08
1.39925e-06
1.37044e-07
1.39041e-06
-5.68417e-08
1.39239e-06
1.26317e-07
1.45809e-08
1.36926e-06
1.47113e-06
-5.82677e-09
1.47612e-06
-5.44301e-08
1.47115e-06
-9.06398e-09
1.47782e-06
-6.81591e-08
1.47304e-06
1.16725e-07
1.48135e-06
2.64537e-08
1.4774e-06
1.16508e-07
1.48071e-06
2.02585e-10
1.47622e-06
8.37482e-08
1.47614e-06
-4.15617e-08
1.4741e-06
1.22485e-07
1.47205e-06
-7.79184e-08
1.47337e-06
1.67649e-07
1.46939e-06
-9.95605e-08
1.47267e-06
1.69319e-07
1.46691e-06
-8.02585e-08
1.47087e-06
1.33081e-07
1.46042e-06
-4.63951e-08
1.46398e-06
1.22762e-07
3.74347e-08
1.44112e-06
1.54145e-06
-1.06157e-09
1.54652e-06
-5.94941e-08
1.54127e-06
-3.81825e-09
1.54618e-06
-7.30731e-08
1.54328e-06
1.19633e-07
1.54935e-06
2.03761e-08
1.54848e-06
1.17381e-07
1.55057e-06
-1.88488e-09
1.54831e-06
8.60093e-08
1.54729e-06
-4.05433e-08
1.5467e-06
1.23073e-07
1.54416e-06
-7.53778e-08
1.54648e-06
1.65331e-07
1.54205e-06
-9.51311e-08
1.54639e-06
1.64976e-07
1.53972e-06
-7.35845e-08
1.545e-06
1.27794e-07
1.53308e-06
-3.44707e-08
1.53794e-06
1.179e-07
5.95079e-08
1.51587e-06
1.61639e-06
2.67629e-09
1.62029e-06
-6.33979e-08
1.61583e-06
6.42018e-10
1.61849e-06
-7.57277e-08
1.61729e-06
1.20835e-07
1.62149e-06
1.61702e-08
1.62264e-06
1.16232e-07
1.62424e-06
-3.48602e-09
1.62332e-06
8.69287e-08
1.62214e-06
-3.93594e-08
1.62237e-06
1.22847e-07
1.61972e-06
-7.27321e-08
1.62278e-06
1.62274e-07
1.61794e-06
-9.02958e-08
1.62332e-06
1.59601e-07
1.61568e-06
-6.59496e-08
1.62222e-06
1.21259e-07
1.609e-06
-2.12539e-08
1.6147e-06
1.12197e-07
8.01735e-08
1.59404e-06
1.69527e-06
4.97939e-09
1.69787e-06
-6.59922e-08
1.69442e-06
4.08926e-09
1.69535e-06
-7.66556e-08
1.69515e-06
1.21035e-07
1.6982e-06
1.31182e-08
1.7003e-06
1.14132e-07
1.70187e-06
-5.05926e-09
1.70173e-06
8.70722e-08
1.7007e-06
-3.83368e-08
1.70155e-06
1.22002e-07
1.69887e-06
-7.00473e-08
1.70266e-06
1.58481e-07
1.69733e-06
-8.49678e-08
1.70376e-06
1.53171e-07
1.6951e-06
-5.72908e-08
1.70274e-06
1.13623e-07
1.6885e-06
-7.02121e-09
1.69449e-06
1.06209e-07
9.88518e-08
1.67581e-06
1.77759e-06
6.11328e-09
1.77929e-06
-6.7699e-08
1.77667e-06
6.71277e-09
1.77672e-06
-7.66997e-08
1.77699e-06
1.20762e-07
1.77943e-06
1.06769e-08
1.78184e-06
1.11726e-07
1.78347e-06
-6.6978e-09
1.78384e-06
8.67032e-08
1.78302e-06
-3.75124e-08
1.78447e-06
1.20551e-07
1.78168e-06
-6.72608e-08
1.78627e-06
1.53896e-07
1.78033e-06
-7.90261e-08
1.78782e-06
1.45679e-07
1.77811e-06
-4.75807e-08
1.78661e-06
1.05126e-07
1.77174e-06
7.84316e-09
1.77739e-06
1.00555e-07
1.15049e-07
1.7612e-06
1.86329e-06
6.5734e-09
1.86457e-06
-6.89846e-08
1.86252e-06
8.76856e-09
1.86234e-06
-7.6524e-08
1.86289e-06
1.20212e-07
1.86501e-06
8.55784e-09
1.86745e-06
1.09285e-07
1.86907e-06
-8.31586e-09
1.86984e-06
8.59329e-08
1.86912e-06
-3.67936e-08
1.87121e-06
1.18464e-07
1.86821e-06
-6.42581e-08
1.87365e-06
1.48457e-07
1.86698e-06
-7.2359e-08
1.8755e-06
1.37156e-07
1.8648e-06
-3.68794e-08
1.8738e-06
9.6121e-08
1.85881e-06
2.28377e-08
1.86349e-06
9.58777e-08
1.28398e-07
1.85014e-06
1.95265e-06
6.75823e-09
1.9538e-06
-7.01299e-08
1.95211e-06
1.04539e-08
1.95207e-06
-7.64827e-08
1.95289e-06
1.19399e-07
1.95481e-06
6.63262e-09
1.95723e-06
1.06869e-07
1.95871e-06
-9.79505e-09
1.95984e-06
8.47995e-08
1.95909e-06
-3.60417e-08
1.96185e-06
1.15702e-07
1.9585e-06
-6.09063e-08
1.96484e-06
1.42115e-07
1.95738e-06
-6.48979e-08
1.96683e-06
1.27704e-07
1.95532e-06
-2.53718e-08
1.96439e-06
8.70534e-08
1.94982e-06
3.74052e-08
1.95297e-06
9.27347e-08
1.38729e-07
1.94264e-06
2.04607e-06
6.87895e-09
2.04719e-06
-7.12478e-08
2.04573e-06
1.19063e-08
2.04594e-06
-7.66907e-08
2.04705e-06
1.18289e-07
2.04883e-06
4.85067e-09
2.05126e-06
1.04439e-07
2.05251e-06
-1.1039e-08
2.05401e-06
8.32949e-08
2.05308e-06
-3.51104e-08
2.05656e-06
1.12224e-07
2.05273e-06
-5.70779e-08
2.05999e-06
1.34852e-07
2.05174e-06
-5.66434e-08
2.06194e-06
1.17506e-07
2.04994e-06
-1.33737e-08
2.05856e-06
7.84301e-08
2.04497e-06
5.1001e-08
2.04621e-06
9.14911e-08
1.46126e-07
2.03881e-06
2.14387e-06
7.01015e-09
2.14499e-06
-7.23695e-08
2.14368e-06
1.32211e-08
2.14412e-06
-7.7132e-08
2.14554e-06
1.16863e-07
2.14719e-06
3.20146e-09
2.14972e-06
1.01915e-07
2.15066e-06
-1.19763e-08
2.15258e-06
8.13754e-08
2.15133e-06
-3.38633e-08
2.15556e-06
1.0799e-07
2.15116e-06
-5.26731e-08
2.15932e-06
1.26686e-07
2.15036e-06
-4.76827e-08
2.16103e-06
1.06834e-07
2.14896e-06
-1.30313e-09
2.15663e-06
7.07619e-08
2.14446e-06
6.31751e-08
2.1437e-06
9.22508e-08
1.50937e-07
2.13889e-06
2.24634e-06
7.16233e-09
2.24747e-06
-7.35009e-08
2.24623e-06
1.44569e-08
2.24684e-06
-7.77368e-08
2.24859e-06
1.15106e-07
2.25009e-06
1.70096e-09
2.25281e-06
9.91965e-08
2.25338e-06
-1.25478e-08
2.25579e-06
7.8971e-08
2.25411e-06
-3.21825e-08
2.25914e-06
1.0296e-07
2.2541e-06
-4.7637e-08
2.2631e-06
1.17691e-07
2.25361e-06
-3.81961e-08
2.26441e-06
9.60355e-08
2.25273e-06
1.03748e-08
2.25898e-06
6.4511e-08
2.24855e-06
7.36036e-08
2.2459e-06
9.49061e-08
1.53678e-07
2.24316e-06
2.35371e-06
7.32521e-09
2.35485e-06
-7.4638e-08
2.35367e-06
1.56383e-08
2.35435e-06
-7.842e-08
2.35646e-06
1.12999e-07
2.35777e-06
3.8768e-10
2.36079e-06
9.61751e-08
2.36094e-06
-1.26934e-08
2.36391e-06
7.59971e-08
2.3617e-06
-2.99735e-08
2.36755e-06
9.71122e-08
2.36189e-06
-4.19776e-08
2.37157e-06
1.08015e-07
2.36183e-06
-2.84595e-08
2.37236e-06
8.55096e-08
2.36152e-06
2.12145e-08
2.36601e-06
6.00169e-08
2.35747e-06
8.21466e-08
2.35322e-06
9.91594e-08
1.54958e-07
2.35194e-06
2.46624e-06
7.48367e-09
2.46736e-06
-7.57645e-08
2.46624e-06
1.67571e-08
2.46692e-06
-7.90935e-08
2.46941e-06
1.10504e-07
2.47048e-06
-6.7817e-10
2.47392e-06
9.2737e-08
2.47357e-06
-1.23473e-08
2.4772e-06
7.23677e-08
2.4744e-06
-2.71739e-08
2.48105e-06
9.04636e-08
2.47486e-06
-3.57844e-08
2.48498e-06
9.78886e-08
2.47536e-06
-1.8832e-08
2.48519e-06
7.56716e-08
2.47555e-06
3.08585e-08
2.47813e-06
5.74411e-08
2.47139e-06
8.88775e-08
2.466e-06
1.04553e-07
1.55404e-07
2.46555e-06
2.58416e-06
7.62117e-09
2.58524e-06
-7.6848e-08
2.58422e-06
1.77749e-08
2.5848e-06
-7.96674e-08
2.58774e-06
1.07558e-07
2.58848e-06
-1.41709e-09
2.59245e-06
8.87681e-08
2.59154e-06
-1.14425e-08
2.5959e-06
6.80121e-08
2.59249e-06
-2.37674e-08
2.59987e-06
8.30877e-08
2.59332e-06
-2.9237e-08
2.60359e-06
8.76207e-08
2.59447e-06
-9.71206e-09
2.60324e-06
6.68976e-08
2.59503e-06
3.90719e-08
2.59573e-06
5.67467e-08
2.59054e-06
9.40645e-08
2.58454e-06
1.1055e-07
1.55596e-07
2.58435e-06
2.70773e-06
7.72003e-09
2.70872e-06
-7.78373e-08
2.70787e-06
1.86244e-08
2.70825e-06
-8.00461e-08
2.71173e-06
1.04076e-07
2.71205e-06
-1.73493e-09
2.71666e-06
8.41605e-08
2.71513e-06
-9.92094e-09
2.72025e-06
6.28934e-08
2.71629e-06
-1.98016e-08
2.72424e-06
7.5137e-08
2.71761e-06
-2.26091e-08
2.72766e-06
7.75703e-08
2.71943e-06
-1.48343e-09
2.72686e-06
5.94715e-08
2.72016e-06
4.57668e-08
2.71919e-06
5.77188e-08
2.71516e-06
9.80918e-08
2.70906e-06
1.16653e-07
1.55976e-07
2.70868e-06
2.83723e-06
7.76134e-09
2.83805e-06
-7.86612e-08
2.83747e-06
1.92096e-08
2.83755e-06
-8.01251e-08
2.84167e-06
9.9952e-08
2.84147e-06
-1.53278e-09
2.8468e-06
7.88232e-08
2.84464e-06
-7.75266e-09
2.8505e-06
5.70308e-08
2.8461e-06
-1.5407e-08
2.85439e-06
6.68481e-08
2.84803e-06
-1.62482e-08
2.8575e-06
6.8105e-08
2.85047e-06
5.5416e-09
2.85641e-06
5.35298e-08
2.85115e-06
5.10267e-08
2.84886e-06
6.00079e-08
2.8456e-06
1.01356e-07
2.83974e-06
1.22511e-07
1.56797e-07
2.83892e-06
2.97293e-06
7.72512e-09
2.9735e-06
-7.92296e-08
2.9733e-06
1.94087e-08
2.97297e-06
-7.97926e-08
2.97785e-06
9.5072e-08
2.97704e-06
-7.2103e-10
2.98316e-06
7.26987e-08
2.98037e-06
-4.95852e-09
2.98688e-06
5.05196e-08
2.98228e-06
-1.08062e-08
2.99059e-06
5.85319e-08
2.98488e-06
-1.05385e-08
2.99344e-06
5.95511e-08
2.9878e-06
1.11839e-08
2.99231e-06
4.90182e-08
2.98825e-06
5.50813e-08
2.98506e-06
6.32034e-08
2.98223e-06
1.04187e-07
2.97677e-06
1.27971e-07
1.58129e-07
2.97544e-06
3.11514e-06
7.59069e-09
3.11535e-06
-7.94352e-08
3.11568e-06
1.90788e-08
3.11482e-06
-7.89345e-08
3.12056e-06
8.93269e-08
3.11908e-06
7.62259e-10
3.126e-06
6.57825e-08
3.12267e-06
-1.63702e-09
3.12964e-06
4.3554e-08
3.12515e-06
-6.31778e-09
3.13315e-06
5.0536e-08
3.12844e-06
-5.83123e-09
3.13586e-06
5.21287e-08
3.13161e-06
1.54363e-08
3.13492e-06
4.57076e-08
3.13178e-06
5.82248e-08
3.12808e-06
6.69022e-08
3.12544e-06
1.06824e-07
3.12035e-06
1.3306e-07
1.59934e-07
3.11855e-06
3.26416e-06
7.33761e-09
3.26389e-06
-7.9158e-08
3.2649e-06
1.80649e-08
3.26341e-06
-7.74471e-08
3.2701e-06
8.26347e-08
3.26794e-06
2.92841e-09
3.27557e-06
5.81466e-08
3.27192e-06
2.01745e-09
3.27905e-06
3.64216e-08
3.27505e-06
-2.31933e-09
3.2824e-06
4.31893e-08
3.27893e-06
-2.36525e-09
3.28518e-06
4.5885e-08
3.28217e-06
1.84475e-08
3.28459e-06
4.32805e-08
3.28209e-06
6.07292e-08
3.27819e-06
7.07994e-08
3.2756e-06
1.09415e-07
3.27076e-06
1.37906e-07
1.62175e-07
3.26851e-06
3.42032e-06
6.94717e-09
3.41944e-06
-7.82742e-08
3.42129e-06
1.62157e-08
3.41909e-06
-7.52541e-08
3.42677e-06
7.49634e-08
3.42398e-06
5.71173e-09
3.43217e-06
4.99588e-08
3.42847e-06
5.71512e-09
3.43543e-06
2.94674e-08
3.43229e-06
8.13334e-10
3.43874e-06
3.67401e-08
3.43656e-06
-1.84435e-10
3.44181e-06
4.06379e-08
3.43975e-06
2.0504e-08
3.4416e-06
4.1429e-08
3.43947e-06
6.28676e-08
3.43546e-06
7.48011e-08
3.43287e-06
1.12005e-07
3.42823e-06
1.42547e-07
1.64894e-07
3.42551e-06
3.58395e-06
6.40418e-09
3.58235e-06
-7.66693e-08
3.58516e-06
1.34064e-08
3.58223e-06
-7.23291e-08
3.59084e-06
6.63567e-08
3.58761e-06
8.94693e-09
3.59607e-06
4.14928e-08
3.5927e-06
9.0853e-09
3.59911e-06
2.30546e-08
3.59715e-06
2.7727e-09
3.6026e-06
3.12922e-08
3.60155e-06
8.68741e-10
3.60613e-06
3.60609e-08
3.60466e-06
2.19685e-08
3.60604e-06
4.0054e-08
3.60379e-06
6.51156e-08
3.59953e-06
7.90558e-08
3.59694e-06
1.14599e-07
3.59279e-06
1.46698e-07
1.68075e-07
3.58961e-06
3.75541e-06
5.70008e-09
3.75299e-06
-7.42511e-08
3.75683e-06
9.56418e-09
3.75323e-06
-6.87223e-08
3.76262e-06
5.69589e-08
3.75922e-06
1.23548e-08
3.76759e-06
3.31191e-08
3.76496e-06
1.17177e-08
3.77051e-06
1.7501e-08
3.76987e-06
3.41359e-09
3.77442e-06
2.67456e-08
3.77416e-06
1.12667e-09
3.77838e-06
3.18453e-08
3.777e-06
2.33427e-08
3.77741e-06
3.96492e-08
3.77449e-06
6.80285e-08
3.76975e-06
8.37941e-08
3.76713e-06
1.17223e-07
3.76397e-06
1.49855e-07
1.71226e-07
3.76082e-06
3.93505e-06
4.83589e-09
3.93177e-06
-7.09664e-08
3.93663e-06
4.70061e-09
3.9325e-06
-6.45886e-08
3.94242e-06
4.7032e-08
3.93923e-06
1.55523e-08
3.94709e-06
2.52597e-08
3.94556e-06
1.32392e-08
3.95008e-06
1.29881e-08
3.95066e-06
2.83448e-09
3.95456e-06
2.28401e-08
3.95469e-06
1.00167e-09
3.9585e-06
2.80303e-08
3.95638e-06
2.54621e-08
3.9548e-06
4.12359e-08
3.9513e-06
7.15252e-08
3.94616e-06
8.89308e-08
3.94351e-06
1.19874e-07
3.94151e-06
1.51853e-07
1.73389e-07
3.93935e-06
4.12326e-06
3.82455e-09
4.11911e-06
-6.68162e-08
4.12487e-06
-1.05594e-09
4.12049e-06
-6.02113e-08
4.13056e-06
3.69651e-08
4.12804e-06
1.80722e-08
4.13496e-06
1.83359e-08
4.1348e-06
1.33988e-08
4.13829e-06
9.50003e-09
4.13978e-06
1.34325e-09
4.14327e-06
1.93501e-08
4.14324e-06
1.03421e-09
4.14601e-06
2.52584e-08
4.14221e-06
2.9266e-08
4.1388e-06
4.46468e-08
4.13504e-06
7.52813e-08
4.12992e-06
9.40507e-08
4.1273e-06
1.22493e-07
4.12626e-06
1.52895e-07
1.74033e-07
4.12561e-06
4.32043e-06
2.69397e-09
4.31549e-06
-6.18736e-08
4.32186e-06
-7.42817e-09
4.31766e-06
-5.60057e-08
4.32738e-06
2.72419e-08
4.32601e-06
1.94397e-08
4.33169e-06
1.26565e-08
4.33292e-06
1.21755e-08
4.3356e-06
6.81132e-09
4.33754e-06
-5.93843e-10
4.34055e-06
1.63441e-08
4.33969e-06
1.88834e-09
4.34029e-06
2.46579e-08
4.3353e-06
3.42608e-08
4.33077e-06
4.91756e-08
4.32713e-06
7.89215e-08
4.32239e-06
9.87953e-08
4.31988e-06
1.24997e-07
4.31967e-06
1.53101e-07
1.73487e-07
4.32022e-06
4.52698e-06
1.48855e-09
4.5214e-06
-5.62946e-08
4.52795e-06
-1.39769e-08
4.52443e-06
-5.24883e-08
4.53332e-06
1.83534e-08
4.53346e-06
1.92953e-08
4.53785e-06
8.27539e-09
4.54014e-06
9.8785e-09
4.5424e-06
4.54938e-09
4.54415e-06
-2.34087e-09
4.54626e-06
1.42405e-08
4.54402e-06
4.12537e-09
4.54247e-06
2.62042e-08
4.53695e-06
3.97836e-08
4.53194e-06
5.41813e-08
4.52864e-06
8.22232e-08
4.52446e-06
1.02979e-07
4.52221e-06
1.27247e-07
4.52271e-06
1.52595e-07
1.72294e-07
4.52391e-06
4.74333e-06
2.70701e-10
4.73737e-06
-5.03271e-08
4.74349e-06
-2.01022e-08
4.74122e-06
-5.02215e-08
4.74888e-06
1.06981e-08
4.75066e-06
1.75154e-08
4.75403e-06
4.9087e-09
4.75679e-06
7.11559e-09
4.75889e-06
2.44746e-09
4.75985e-06
-3.30199e-09
4.76049e-06
1.36055e-08
4.75677e-06
7.83736e-09
4.75392e-06
2.90634e-08
4.74825e-06
4.54474e-08
4.74318e-06
5.92492e-08
4.74022e-06
8.51874e-08
4.73668e-06
1.06523e-07
4.73493e-06
1.28995e-07
4.73577e-06
1.51757e-07
1.70638e-07
4.73742e-06
4.96995e-06
-8.83437e-10
4.96392e-06
-4.42903e-08
4.96893e-06
-2.5122e-08
4.9684e-06
-4.96845e-08
4.97468e-06
4.41829e-09
4.97785e-06
1.43474e-08
4.98075e-06
2.00527e-09
4.98326e-06
4.60639e-09
4.98514e-06
5.62285e-10
4.98497e-06
-3.13141e-09
4.9839e-06
1.46815e-08
4.97899e-06
1.2743e-08
4.9755e-06
3.25589e-08
4.97006e-06
5.08785e-08
4.96509e-06
6.42209e-08
4.96235e-06
8.79265e-08
4.9595e-06
1.09374e-07
4.95839e-06
1.30103e-07
4.95926e-06
1.50889e-07
1.68532e-07
4.96137e-06
5.20732e-06
-1.88812e-09
5.20159e-06
-3.85631e-08
5.20482e-06
-2.83433e-08
5.20629e-06
-5.11585e-08
5.21141e-06
-7.00449e-10
5.21535e-06
1.04043e-08
5.21837e-06
-1.00989e-09
5.22008e-06
2.89385e-09
5.22126e-06
-6.14707e-10
5.22001e-06
-1.8837e-09
5.21739e-06
1.73009e-08
5.21167e-06
1.84575e-08
5.20787e-06
3.63608e-08
5.20299e-06
5.57634e-08
5.19816e-06
6.90451e-08
5.19552e-06
9.05729e-08
5.19345e-06
1.11438e-07
5.19285e-06
1.30708e-07
5.19377e-06
1.49968e-07
1.66046e-07
5.19626e-06
5.45596e-06
-2.65841e-09
5.45094e-06
-3.35427e-08
5.45185e-06
-2.9259e-08
5.45519e-06
-5.44917e-08
5.4597e-06
-5.21241e-09
5.46367e-06
6.43162e-09
5.46705e-06
-4.38809e-09
5.46787e-06
2.07882e-09
5.46763e-06
-3.83385e-10
5.46549e-06
2.58958e-10
5.46188e-06
2.09172e-08
5.45563e-06
2.47052e-08
5.4517e-06
4.02917e-08
5.44748e-06
5.99821e-08
5.44288e-06
7.36477e-08
5.44024e-06
9.32122e-08
5.43896e-06
1.12711e-07
5.43868e-06
1.3099e-07
5.43981e-06
1.48839e-07
1.63267e-07
5.44259e-06
5.71642e-06
-3.12355e-09
5.71249e-06
-2.96078e-08
5.71094e-06
-2.77142e-08
5.7154e-06
-5.8951e-08
5.72007e-06
-9.87769e-09
5.72342e-06
3.07659e-09
5.727e-06
-7.96247e-09
5.7272e-06
1.8759e-09
5.72508e-06
1.73617e-09
5.72214e-06
3.20127e-09
5.71806e-06
2.4997e-08
5.71162e-06
3.11457e-08
5.70758e-06
4.43327e-08
5.70398e-06
6.35785e-08
5.69972e-06
7.79101e-08
5.69711e-06
9.58208e-08
5.69642e-06
1.13398e-07
5.69646e-06
1.30954e-07
5.69789e-06
1.47411e-07
1.60246e-07
5.70091e-06
5.9893e-06
-3.23459e-09
5.9868e-06
-2.71003e-08
5.98296e-06
-2.38749e-08
5.98738e-06
-6.33739e-08
5.9929e-06
-1.54024e-08
5.99528e-06
7.04142e-10
5.99854e-06
-1.12282e-08
5.99845e-06
1.96963e-09
5.99462e-06
5.56153e-09
5.99076e-06
7.06956e-09
5.98666e-06
2.90877e-08
5.98026e-06
3.75551e-08
5.97611e-06
4.84763e-08
5.973e-06
6.66916e-08
5.96919e-06
8.17183e-08
5.96674e-06
9.82683e-08
5.96633e-06
1.13806e-07
5.96676e-06
1.30525e-07
5.96853e-06
1.45644e-07
1.57009e-07
5.97177e-06
6.27523e-06
-2.97367e-09
6.27438e-06
-2.62578e-08
6.26866e-06
-1.81523e-08
6.27179e-06
-6.65004e-08
6.27849e-06
-2.21022e-08
6.27995e-06
-7.6088e-10
6.28228e-06
-1.35498e-08
6.28193e-06
2.31939e-09
6.27704e-06
1.04464e-08
6.27222e-06
1.189e-08
6.26827e-06
3.30403e-08
6.26215e-06
4.36679e-08
6.25789e-06
5.27455e-08
6.2551e-06
6.94788e-08
6.25182e-06
8.5001e-08
6.2497e-06
1.00388e-07
6.24933e-06
1.14173e-07
6.25016e-06
1.29695e-07
6.2523e-06
1.43507e-07
1.53553e-07
6.25575e-06
6.57485e-06
-2.35456e-09
6.57571e-06
-2.7122e-08
6.56875e-06
-1.11867e-08
6.56954e-06
-6.72884e-08
6.57719e-06
-2.9753e-08
6.57809e-06
-1.66035e-09
6.57898e-06
-1.44436e-08
6.57834e-06
2.95886e-09
6.573e-06
1.57909e-08
6.56732e-06
1.75658e-08
6.56354e-06
3.68198e-08
6.55791e-06
4.93003e-08
6.55351e-06
5.71459e-08
6.5509e-06
7.20829e-08
6.54818e-06
8.77307e-08
6.54651e-06
1.02053e-07
6.54612e-06
1.14564e-07
6.54727e-06
1.28546e-07
6.54978e-06
1.41e-07
1.49858e-07
6.55347e-06
6.88886e-06
-1.42217e-09
6.8912e-06
-2.94681e-08
6.88383e-06
-3.81724e-09
6.88173e-06
-6.51832e-08
6.88943e-06
-3.74501e-08
6.89027e-06
-2.50701e-09
6.88951e-06
-1.36796e-08
6.88865e-06
3.81927e-09
6.88316e-06
2.12826e-08
6.87688e-06
2.38439e-08
6.87317e-06
4.05281e-08
6.86811e-06
5.43571e-08
6.86363e-06
6.16324e-08
6.86108e-06
7.46256e-08
6.85891e-06
8.99038e-08
6.85774e-06
1.03222e-07
6.8574e-06
1.14905e-07
6.85877e-06
1.27181e-07
6.8616e-06
1.38167e-07
1.45906e-07
6.86555e-06
7.21796e-06
-2.44925e-10
7.22136e-06
-3.2867e-08
7.21451e-06
3.02999e-09
7.20939e-06
-6.00607e-08
7.21597e-06
-4.4034e-08
7.21691e-06
-3.44628e-09
7.21472e-06
-1.14833e-08
7.21352e-06
5.01462e-09
7.20827e-06
2.65293e-08
7.20161e-06
3.05068e-08
7.19786e-06
4.42757e-08
7.1934e-06
5.88187e-08
7.18892e-06
6.61129e-08
7.18634e-06
7.72029e-08
7.18472e-06
9.15286e-08
7.184e-06
1.03941e-07
7.18387e-06
1.15038e-07
7.18538e-06
1.25666e-07
7.18846e-06
1.35089e-07
1.41707e-07
7.19266e-06
7.56289e-06
1.08662e-09
7.56685e-06
-3.6825e-08
7.56126e-06
8.62015e-09
7.55351e-06
-5.23065e-08
7.55788e-06
-4.84039e-08
7.5588e-06
-4.36881e-09
7.5554e-06
-8.08061e-09
7.55376e-06
6.65049e-09
7.54899e-06
3.12999e-08
7.54226e-06
3.72382e-08
7.53832e-06
4.82147e-08
7.53445e-06
6.26935e-08
7.5301e-06
7.0455e-08
7.52744e-06
7.98706e-08
7.5263e-06
9.26672e-08
7.52596e-06
1.04275e-07
7.52619e-06
1.14814e-07
7.52785e-06
1.24e-07
7.5311e-06
1.31847e-07
1.37299e-07
7.5355e-06
7.92442e-06
2.47333e-09
7.92837e-06
-4.07674e-08
7.92467e-06
1.2317e-08
7.9148e-06
-4.24364e-08
7.91649e-06
-5.00894e-08
7.91684e-06
-4.71982e-09
7.91239e-06
-3.63253e-09
7.91024e-06
8.7988e-09
7.90612e-06
3.54166e-08
7.89953e-06
4.38295e-08
7.89534e-06
5.24117e-08
7.89195e-06
6.608e-08
7.88791e-06
7.44942e-08
7.88517e-06
8.2614e-08
7.88436e-06
9.34707e-08
7.88439e-06
1.04247e-07
7.88506e-06
1.14144e-07
7.88693e-06
1.2213e-07
7.89028e-06
1.28493e-07
1.32738e-07
7.89485e-06
8.30333e-06
3.82797e-09
8.3068e-06
-4.42431e-08
8.30516e-06
1.39638e-08
8.29403e-06
-3.13072e-08
8.29282e-06
-4.88783e-08
8.29215e-06
-4.05449e-09
8.28667e-06
1.84339e-09
8.28382e-06
1.16492e-08
8.28042e-06
3.8822e-08
8.27418e-06
5.00714e-08
8.26971e-06
5.68769e-08
8.26667e-06
6.9126e-08
8.26308e-06
7.8083e-08
8.26036e-06
8.53333e-08
8.2597e-06
9.4128e-08
8.26007e-06
1.03875e-07
8.26123e-06
1.1299e-07
8.26337e-06
1.19981e-07
8.26683e-06
1.25034e-07
1.28079e-07
8.27149e-06
8.70041e-06
5.08371e-09
8.70312e-06
-4.69609e-08
8.70324e-06
1.38474e-08
8.69194e-06
-2.00083e-08
8.68768e-06
-4.46173e-08
8.68571e-06
-2.08842e-09
8.67935e-06
8.2061e-09
8.67562e-06
1.53823e-08
8.67265e-06
4.17861e-08
8.66697e-06
5.57605e-08
8.66227e-06
6.15727e-08
8.65941e-06
7.19841e-08
8.65636e-06
8.11308e-08
8.65382e-06
8.78733e-08
8.65317e-06
9.47768e-08
8.65383e-06
1.03216e-07
8.65547e-06
1.11356e-07
8.65797e-06
1.17482e-07
8.66156e-06
1.21438e-07
1.23359e-07
8.66628e-06
9.1165e-06
6.19898e-09
9.11817e-06
-4.86297e-08
9.11985e-06
1.21696e-08
9.1088e-06
-8.95952e-09
9.10203e-06
-3.78471e-08
9.09865e-06
1.2928e-09
9.09144e-06
1.54193e-08
9.0866e-06
2.02185e-08
9.08384e-06
4.45483e-08
9.07871e-06
6.08867e-08
9.07388e-06
6.6401e-08
9.07106e-06
7.48034e-08
9.06858e-06
8.36155e-08
9.06638e-06
9.00698e-08
9.06571e-06
9.54544e-08
9.06656e-06
1.0236e-07
9.06862e-06
1.09297e-07
9.07152e-06
1.14586e-07
9.07531e-06
1.17641e-07
1.18584e-07
9.08009e-06
9.55249e-06
7.16799e-09
9.55281e-06
-4.89464e-08
9.55573e-06
9.24895e-09
9.5454e-06
1.36832e-09
9.53662e-06
-2.90644e-08
9.53178e-06
6.13151e-09
9.52373e-06
2.34657e-08
9.51784e-06
2.61085e-08
9.51496e-06
4.7429e-08
9.5103e-06
6.55438e-08
9.50546e-06
7.12491e-08
9.50257e-06
7.76926e-08
9.50058e-06
8.56073e-08
9.49886e-06
9.17898e-08
9.49822e-06
9.60903e-08
9.49919e-06
1.01385e-07
9.50158e-06
1.06906e-07
9.50489e-06
1.11286e-07
9.50895e-06
1.1358e-07
1.13725e-07
9.5138e-06
1.00093e-05
8.03241e-09
1.00082e-05
-4.78893e-08
1.00117e-05
5.76068e-09
1.00025e-05
1.05741e-08
9.99214e-06
-1.87066e-08
9.98586e-06
1.24093e-08
9.9771e-06
3.22267e-08
9.97022e-06
3.29899e-08
9.96702e-06
5.06221e-08
9.96274e-06
6.98292e-08
9.9579e-06
7.60873e-08
9.95491e-06
8.06859e-08
9.95327e-06
8.72425e-08
9.9521e-06
9.29619e-08
9.95165e-06
9.654e-08
9.95271e-06
1.00326e-07
9.95532e-06
1.04295e-07
9.95898e-06
1.07624e-07
9.96335e-06
1.09212e-07
1.08735e-07
9.96834e-06
1.04878e-05
8.87214e-09
1.04857e-05
-4.57417e-08
1.04886e-05
2.8262e-09
1.04809e-05
1.8243e-08
1.04695e-05
-7.29993e-09
1.04619e-05
2.00276e-08
1.04524e-05
4.16818e-08
1.04446e-05
4.08561e-08
1.0441e-05
5.41907e-08
1.04371e-05
7.3764e-08
1.04322e-05
8.09449e-08
1.04291e-05
8.38161e-08
1.04277e-05
8.86371e-08
1.0427e-05
9.36209e-08
1.04269e-05
9.66327e-08
1.04281e-05
9.91574e-08
1.04308e-05
1.01554e-07
1.04348e-05
1.03681e-07
1.04395e-05
1.0453e-07
1.03559e-07
1.04446e-05
1.09891e-05
9.76838e-09
1.09863e-05
-4.29547e-08
1.09876e-05
1.59426e-09
1.09812e-05
2.46271e-08
1.09698e-05
4.10497e-09
1.09609e-05
2.89468e-08
1.09507e-05
5.18459e-08
1.09419e-05
4.96748e-08
1.09379e-05
5.82145e-08
1.09343e-05
7.7313e-08
1.09295e-05
8.57738e-08
1.09261e-05
8.7177e-08
1.09249e-05
8.98845e-08
1.09246e-05
9.38667e-08
1.0925e-05
9.6236e-08
1.09264e-05
9.78031e-08
1.09292e-05
9.87223e-08
1.09333e-05
9.95474e-08
1.09383e-05
9.95664e-08
9.81593e-08
1.09437e-05
1.15143e-05
1.07855e-08
1.15106e-05
-3.91857e-08
1.15106e-05
1.58414e-09
1.15044e-05
3.08464e-08
1.14933e-05
1.51312e-08
1.14839e-05
3.84194e-08
1.1473e-05
6.27541e-08
1.14632e-05
5.94227e-08
1.14585e-05
6.28843e-08
1.14554e-05
8.04544e-08
1.14508e-05
9.03738e-08
1.14471e-05
9.08442e-08
1.14459e-05
9.11387e-08
1.1446e-05
9.37613e-08
1.14469e-05
9.53313e-08
1.14485e-05
9.61503e-08
1.14515e-05
9.579e-08
1.14557e-05
9.52976e-08
1.14609e-05
9.43827e-08
9.25214e-08
1.14665e-05
1.20646e-05
1.19691e-08
1.20599e-05
-3.4465e-08
1.20584e-05
3.07638e-09
1.20519e-05
3.74101e-08
1.20414e-05
2.56389e-08
1.20319e-05
4.78886e-08
1.20205e-05
7.41451e-08
1.20098e-05
7.01535e-08
1.20042e-05
6.84357e-08
1.20014e-05
8.3314e-08
1.19972e-05
9.44835e-08
1.19933e-05
9.47638e-08
1.19918e-05
9.26144e-08
1.19923e-05
9.33499e-08
1.19936e-05
9.39967e-08
1.19957e-05
9.40848e-08
1.19987e-05
9.2699e-08
1.20031e-05
9.09659e-08
1.20084e-05
8.90433e-08
8.66566e-08
1.20143e-05
1.26412e-05
1.33402e-08
1.26355e-05
-2.87878e-08
1.26325e-05
6.09534e-09
1.26251e-05
4.48394e-08
1.26147e-05
3.6015e-08
1.26058e-05
5.68045e-08
1.25945e-05
8.54529e-08
1.25828e-05
8.18786e-08
1.25761e-05
7.50892e-08
1.25732e-05
8.61826e-08
1.25698e-05
9.79411e-08
1.25659e-05
9.86924e-08
1.2564e-05
9.44555e-08
1.25646e-05
9.27858e-08
1.25663e-05
9.23109e-08
1.25688e-05
9.15474e-08
1.25721e-05
8.93712e-08
1.25766e-05
8.65511e-08
1.2582e-05
8.35961e-08
8.05898e-08
1.25881e-05
1.32454e-05
1.48887e-08
1.32388e-05
-2.22438e-08
1.32341e-05
1.07901e-08
1.32256e-05
5.33822e-08
1.3215e-05
4.65984e-08
1.32067e-05
6.50976e-08
1.3196e-05
9.61566e-08
1.31836e-05
9.43229e-08
1.31756e-05
8.30639e-08
1.31724e-05
8.94077e-08
1.31695e-05
1.00818e-07
1.31659e-05
1.0233e-07
1.31637e-05
9.6638e-08
1.31641e-05
9.23242e-08
1.31661e-05
9.03218e-08
1.31691e-05
8.8553e-08
1.31728e-05
8.5712e-08
1.31773e-05
8.20308e-08
1.31828e-05
7.80605e-08
7.43339e-08
1.31891e-05
1.38785e-05
1.65774e-08
1.38708e-05
-1.45469e-08
1.38648e-05
1.67481e-08
1.38551e-05
6.30542e-08
1.38438e-05
5.79362e-08
1.38359e-05
7.2984e-08
1.38263e-05
1.05802e-07
1.38134e-05
1.07153e-07
1.38041e-05
9.24494e-08
1.38001e-05
9.33689e-08
1.37976e-05
1.03312e-07
1.37944e-05
1.05512e-07
1.37921e-05
9.89662e-08
1.37922e-05
9.21833e-08
1.37944e-05
8.81375e-08
1.37978e-05
8.51608e-08
1.38019e-05
8.16177e-08
1.38066e-05
7.73642e-08
1.38122e-05
7.24548e-08
6.78469e-08
1.38187e-05
1.45419e-05
1.83545e-08
1.45328e-05
-5.48471e-09
1.4526e-05
2.35969e-08
1.45154e-05
7.35828e-08
1.45029e-05
7.05128e-08
1.44949e-05
8.09328e-08
1.44864e-05
1.14336e-07
1.44737e-05
1.1988e-07
1.44629e-05
1.0317e-07
1.44578e-05
9.84606e-08
1.44555e-05
1.05704e-07
1.44527e-05
1.08242e-07
1.44505e-05
1.01237e-07
1.44502e-05
9.24063e-08
1.44524e-05
8.59669e-08
1.44561e-05
8.14724e-08
1.44607e-05
7.70348e-08
1.44657e-05
7.23889e-08
1.44712e-05
6.68585e-08
6.09978e-08
1.44781e-05
1.5237e-05
2.01902e-08
1.52268e-05
4.72296e-09
1.52187e-05
3.17485e-08
1.52079e-05
8.43314e-08
1.5194e-05
8.44018e-08
1.51852e-05
8.97621e-08
1.51776e-05
1.21906e-07
1.51655e-05
1.32035e-07
1.51537e-05
1.15008e-07
1.51472e-05
1.04966e-07
1.51444e-05
1.08406e-07
1.51421e-05
1.10598e-07
1.51399e-05
1.03385e-07
1.51395e-05
9.28675e-08
1.51414e-05
8.40319e-08
1.51453e-05
7.76148e-08
1.51502e-05
7.21001e-08
1.51558e-05
6.6817e-08
1.51616e-05
6.10801e-08
5.39692e-08
1.51686e-05
1.59654e-05
2.20783e-08
1.59539e-05
1.62215e-08
1.59449e-05
4.08186e-08
1.5934e-05
9.52022e-08
1.59189e-05
9.94806e-08
1.59087e-05
9.99653e-08
1.59015e-05
1.29092e-07
1.58903e-05
1.43303e-07
1.58776e-05
1.27652e-07
1.58696e-05
1.13019e-07
1.58661e-05
1.11877e-07
1.58639e-05
1.12784e-07
1.58619e-05
1.05441e-07
1.58613e-05
9.34326e-08
1.58629e-05
8.24707e-08
1.58667e-05
7.37695e-08
1.58719e-05
6.69298e-08
1.58779e-05
6.0741e-08
1.58848e-05
5.42139e-08
4.76142e-08
1.58912e-05
1.67287e-05
2.40061e-08
1.67161e-05
2.87801e-08
1.6706e-05
5.09303e-08
1.66952e-05
1.0605e-07
1.66793e-05
1.15345e-07
1.66672e-05
1.12032e-07
1.66598e-05
1.36544e-07
1.66494e-05
1.53692e-07
1.66363e-05
1.40731e-07
1.66267e-05
1.22657e-07
1.6622e-05
1.16527e-07
1.66196e-05
1.15166e-07
1.66176e-05
1.07455e-07
1.66169e-05
9.41327e-08
1.66181e-05
8.13036e-08
1.66217e-05
7.01338e-08
1.66271e-05
6.15388e-08
1.66337e-05
5.41191e-08
1.66411e-05
4.68678e-08
4.05016e-08
1.66482e-05
1.75284e-05
2.60032e-08
1.75156e-05
4.15568e-08
1.75038e-05
6.27495e-08
1.74929e-05
1.1687e-07
1.74767e-05
1.31582e-07
1.74626e-05
1.26126e-07
1.74542e-05
1.44976e-07
1.74444e-05
1.63483e-07
1.74312e-05
1.53929e-07
1.742e-05
1.33816e-07
1.74138e-05
1.22714e-07
1.74108e-05
1.18206e-07
1.74087e-05
1.09571e-07
1.74077e-05
9.51308e-08
1.74085e-05
8.05363e-08
1.74118e-05
6.67947e-08
1.74174e-05
5.59692e-08
1.74244e-05
4.70765e-08
1.74322e-05
3.90748e-08
3.2136e-08
1.74406e-05
1.83662e-05
2.81309e-08
1.83533e-05
5.44997e-08
1.83401e-05
7.59034e-08
1.83291e-05
1.27887e-07
1.83127e-05
1.47961e-07
1.82968e-05
1.42015e-07
1.82868e-05
1.55006e-07
1.8277e-05
1.73244e-07
1.82638e-05
1.67138e-07
1.82513e-05
1.46358e-07
1.82433e-05
1.30749e-07
1.82391e-05
1.22386e-07
1.82365e-05
1.12137e-07
1.82351e-05
9.65914e-08
1.82353e-05
8.0269e-08
1.82383e-05
6.37801e-08
1.82439e-05
5.03651e-08
1.82514e-05
3.96117e-08
1.826e-05
3.05042e-08
2.281e-08
1.82693e-05
1.92441e-05
3.04462e-08
1.92313e-05
6.72437e-08
1.9217e-05
9.02335e-08
1.92054e-05
1.39448e-07
1.91893e-05
1.64105e-07
1.91717e-05
1.59633e-07
1.91596e-05
1.67052e-07
1.91493e-05
1.83556e-07
1.9136e-05
1.80497e-07
1.91221e-05
1.60184e-07
1.9112e-05
1.40898e-07
1.91061e-05
1.28234e-07