/*--------------------------------*- C++ -*----------------------------------*\
| =========                 |                                                 |
| \\      /  F ield         | OpenFOAM: The Open Source CFD Toolbox           |
|  \\    /   O peration     | Version:  v2012                                 |
|   \\  /    A nd           | Website:  www.openfoam.com                      |
|    \\/     M anipulation  |                                                 |
\*---------------------------------------------------------------------------*/
FoamFile
{
    version     2.0;
    format      ascii;
    class       volVectorField;
    location    "1.1";
    object      U;
}
// * * * * * * * * * * * * * * * * * * * * * * * * * * * * * * * * * * * * * //

dimensions      [0 1 -1 0 0 0 0];


internalField   nonuniform List<vector> 
17600
(
(0.828524 2.93637e-05 0)
(1.16965 -0.000843901 0)
(0.832389 8.69131e-05 0)
(1.16139 -0.000811088 0)
(0.846463 0.00160829 0)
(1.14949 0.00082605 0)
(0.863886 0.00158642 0)
(1.13156 9.08726e-05 0)
(0.87314 0.00113731 0)
(1.11613 -0.000965729 0)
(0.878622 0.00241281 0)
(1.10386 -0.00228847 0)
(0.879657 0.00448489 0)
(1.09626 -0.0036749 0)
(0.873787 0.00557317 0)
(1.09196 -0.00374018 0)
(0.861178 0.0049365 0)
(1.08861 -0.00321101 0)
(0.841242 0.00440641 0)
(1.0849 -0.00292542 0)
(0.839516 -5.92163e-05 0)
(1.15729 -0.000692324 0)
(0.845528 -5.62728e-05 0)
(1.14773 -0.000714331 0)
(0.861308 0.0015151 0)
(1.13357 0.000873705 0)
(0.881856 0.00155098 0)
(1.11299 0.000245493 0)
(0.894607 0.00110416 0)
(1.09396 -0.0007995 0)
(0.904437 0.0023647 0)
(1.07591 -0.00206443 0)
(0.912077 0.00438874 0)
(1.05896 -0.00338351 0)
(0.917727 0.00550511 0)
(1.03971 -0.003553 0)
(0.92603 0.0052421 0)
(1.01291 -0.0035687 0)
(0.940063 0.00589538 0)
(0.97291 -0.00442127 0)
(0.860677 -0.000119476 0)
(1.13384 -0.000560184 0)
(0.870634 -0.000167109 0)
(1.12189 -0.000652772 0)
(0.889298 0.00144569 0)
(1.10474 0.00086375 0)
(0.913162 0.00158467 0)
(1.082 0.000275275 0)
(0.929068 0.00117264 0)
(1.06038 -0.000758979 0)
(0.941732 0.00245064 0)
(1.03993 -0.0020071 0)
(0.952042 0.00446338 0)
(1.02205 -0.00326751 0)
(0.960068 0.00557189 0)
(1.00506 -0.0033638 0)
(0.968193 0.00532363 0)
(0.98759 -0.00314072 0)
(0.973346 0.00588292 0)
(0.971494 -0.00255082 0)
(0.888873 -0.00013952 0)
(1.10309 -0.000505941 0)
(0.902544 -0.000209594 0)
(1.08904 -0.000673842 0)
(0.922808 0.00146374 0)
(1.07095 0.000759074 0)
(0.946804 0.00169764 0)
(1.04994 0.000199264 0)
(0.961827 0.00134029 0)
(1.03076 -0.000832776 0)
(0.971878 0.00263735 0)
(1.01488 -0.00206046 0)
(0.97834 0.00462942 0)
(1.00411 -0.00325928 0)
(0.981769 0.0057174 0)
(0.996113 -0.00328661 0)
(0.983947 0.00542173 0)
(0.988643 -0.002836 0)
(0.982233 0.00579331 0)
(0.981184 -0.00102851 0)
(0.919293 -0.00012399 0)
(1.07095 -0.000517284 0)
(0.934297 -0.000192435 0)
(1.05652 -0.00075246 0)
(0.953019 0.0015383 0)
(1.041 0.000605451 0)
(0.973174 0.00183108 0)
(1.02593 9.95357e-05 0)
(0.983919 0.00151033 0)
(1.01291 -0.000894881 0)
(0.98878 0.00278713 0)
(1.00378 -0.00206694 0)
(0.990561 0.00470752 0)
(0.999335 -0.00319309 0)
(0.990601 0.00574676 0)
(0.996199 -0.00318328 0)
(0.99027 0.00544108 0)
(0.991851 -0.00258514 0)
(0.987243 0.00575904 0)
(0.985668 0.000244361 0)
(0.947016 -8.29144e-05 0)
(1.04324 -0.00056715 0)
(0.960327 -0.000138876 0)
(1.03059 -0.000847658 0)
(0.974657 0.00161848 0)
(1.02004 0.000459819 0)
(0.989007 0.00192679 0)
(1.01218 2.54935e-05 0)
(0.995227 0.00162707 0)
(1.00518 -0.000905137 0)
(0.996171 0.00286144 0)
(1.0007 -0.00201895 0)
(0.995579 0.00469075 0)
(0.99918 -0.00307609 0)
(0.994615 0.00565823 0)
(0.997643 -0.00300729 0)
(0.993807 0.00533453 0)
(0.994181 -0.0022375 0)
(0.990736 0.00567606 0)
(0.988669 0.0014334 0)
(0.968686 -3.22883e-05 0)
(1.02335 -0.000627172 0)
(0.97835 -7.40069e-05 0)
(1.01378 -0.000925656 0)
(0.987302 0.00167429 0)
(1.0082 0.000350027 0)
(0.996395 0.00196494 0)
(1.00593 -1.88372e-05 0)
(0.999843 0.00168993 0)
(1.0028 -0.000885659 0)
(0.999131 0.00288726 0)
(1.00054 -0.00195551 0)
(0.997991 0.00463331 0)
(1.00009 -0.00294671 0)
(0.997023 0.00551798 0)
(0.999152 -0.00277374 0)
(0.996228 0.00512361 0)
(0.996173 -0.00174584 0)
(0.993297 0.00547066 0)
(0.991269 0.00259791 0)
(0.98332 1.21345e-05 0)
(1.01142 -0.000677412 0)
(0.989089 -1.49693e-05 0)
(1.00497 -0.000972428 0)
(0.993526 0.00170126 0)
(1.00277 0.000274705 0)
(0.999108 0.001958 0)
(1.00358 -4.9208e-05 0)
(1.00151 0.00171774 0)
(1.00243 -0.000859529 0)
(1.00058 0.00288885 0)
(1.00115 -0.00189069 0)
(0.999612 0.00455811 0)
(1.00118 -0.00281164 0)
(0.998863 0.0053567 0)
(1.00059 -0.00251238 0)
(0.99817 0.004867 0)
(0.997943 -0.00118057 0)
(0.99543 0.00520408 0)
(0.993529 0.00368441 0)
(0.991914 4.21219e-05 0)
(1.00537 -0.000711542 0)
(0.994727 3.16986e-05 0)
(1.00131 -0.000991798 0)
(0.996341 0.0017087 0)
(1.0008 0.000221646 0)
(1.00001 0.00192714 0)
(1.00282 -7.76885e-05 0)
(1.00223 0.00172604 0)
(1.00263 -0.00083624 0)
(1.00161 0.0028756 0)
(1.00192 -0.00182481 0)
(1.00099 0.00446473 0)
(1.00227 -0.00266207 0)
(1.00046 0.00516455 0)
(1.00191 -0.00221676 0)
(0.999855 0.00457158 0)
(0.99949 -0.000573485 0)
(0.997294 0.00491029 0)
(0.995486 0.00466902 0)
(0.996363 5.8037e-05 0)
(1.00269 -0.000733127 0)
(0.997432 6.68724e-05 0)
(1.00019 -0.000995113 0)
(0.997762 0.00170674 0)
(1.00036 0.000180672 0)
(1.00047 0.00188753 0)
(1.00263 -0.000107777 0)
(1.00273 0.00172285 0)
(1.00295 -0.000817691 0)
(1.0025 0.00284957 0)
(1.00266 -0.00175756 0)
(1.00221 0.00435072 0)
(1.00326 -0.00249263 0)
(1.00185 0.00493194 0)
(1.00305 -0.0018779 0)
(1.00128 0.00424173 0)
(1.00079 4.38446e-05 0)
(0.99887 0.00461914 0)
(0.997139 0.00552856 0)
(0.99846 6.47746e-05 0)
(1.00153 -0.000748254 0)
(0.998679 9.38464e-05 0)
(1 -0.000992735 0)
(0.998692 0.00170047 0)
(1.00048 0.000146095 0)
(1.0009 0.00184642 0)
(1.00263 -0.000138389 0)
(1.00315 0.00171142 0)
(1.00324 -0.000802504 0)
(1.00324 0.00280961 0)
(1.00329 -0.00168631 0)
(1.00322 0.00421277 0)
(1.00408 -0.00229997 0)
(1.00297 0.00466107 0)
(1.00397 -0.0015007 0)
(1.00241 0.00388553 0)
(1.0018 0.000679515 0)
(1.00012 0.00437108 0)
(0.998459 0.00623337 0)
(0.999418 6.72801e-05 0)
(1.00095 -0.000761086 0)
(0.999253 0.000115497 0)
(1.00004 -0.00099087 0)
(0.999394 0.00169088 0)
(1.00074 0.000115167 0)
(1.00132 0.00180601 0)
(1.00269 -0.000167397 0)
(1.00347 0.00169301 0)
(1.00346 -0.000788234 0)
(1.00377 0.00275423 0)
(1.00377 -0.00160653 0)
(1.00395 0.00404756 0)
(1.0047 -0.00208137 0)
(1.00379 0.0043558 0)
(1.00462 -0.0010906 0)
(1.00322 0.00351174 0)
(1.00251 0.00132473 0)
(1.00104 0.00420847 0)
(0.999453 0.00677535 0)
(0.999877 6.85279e-05 0)
(1.00061 -0.000773395 0)
(0.99952 0.000133805 0)
(1.00009 -0.000992031 0)
(0.999916 0.00167749 0)
(1.001 8.66964e-05 0)
(1.00166 0.00176611 0)
(1.00275 -0.000193009 0)
(1.00367 0.00166805 0)
(1.00361 -0.000772018 0)
(1.00411 0.00268213 0)
(1.0041 -0.001514 0)
(1.00443 0.00385385 0)
(1.00512 -0.00183465 0)
(1.00433 0.00401708 0)
(1.00504 -0.000654883 0)
(1.00377 0.00314642 0)
(1.00297 0.00192529 0)
(1.00169 0.0041481 0)
(1.00018 0.00717111 0)
(1.00012 6.97526e-05 0)
(1.00039 -0.000785717 0)
(0.999642 0.000150109 0)
(1.00012 -0.000996613 0)
(1.00028 0.00165987 0)
(1.0012 6.01291e-05 0)
(1.00189 0.00172553 0)
(1.0028 -0.000213852 0)
(1.00378 0.00163562 0)
(1.0037 -0.000749848 0)
(1.00429 0.00259128 0)
(1.00432 -0.00140634 0)
(1.00471 0.00363399 0)
(1.00539 -0.00156458 0)
(1.00466 0.00365916 0)
(1.00528 -0.000217792 0)
(1.00412 0.0028209 0)
(1.00326 0.00245437 0)
(1.00215 0.00418994 0)
(1.00073 0.00744274 0)
(1.00025 7.12257e-05 0)
(1.00025 -0.000798186 0)
(0.999698 0.000165282 0)
(1.00015 -0.00100391 0)
(1.00051 0.00163788 0)
(1.00134 3.55528e-05 0)
(1.00204 0.00168284 0)
(1.00284 -0.000228707 0)
(1.00383 0.00159393 0)
(1.00376 -0.000718346 0)
(1.00437 0.0024807 0)
(1.00445 -0.00128221 0)
(1.00485 0.0033897 0)
(1.00554 -0.00127813 0)
(1.00487 0.00330089 0)
(1.0054 0.000196775 0)
(1.00437 0.00255746 0)
(1.00346 0.00290414 0)
(1.0025 0.00432131 0)
(1.00117 0.00761565 0)
(1.00032 7.28871e-05 0)
(1.00017 -0.000810844 0)
(0.999725 0.000179764 0)
(1.00017 -0.00101275 0)
(1.00066 0.0016111 0)
(1.00143 1.4109e-05 0)
(1.00213 0.00163647 0)
(1.00286 -0.000236287 0)
(1.00385 0.00154117 0)
(1.0038 -0.000675435 0)
(1.0044 0.00234984 0)
(1.00454 -0.0011402 0)
(1.00493 0.00312304 0)
(1.00563 -0.000980859 0)
(1.005 0.00294782 0)
(1.00546 0.000591245 0)
(1.00456 0.00237076 0)
(1.00361 0.00327388 0)
(1.00279 0.00451748 0)
(1.00157 0.00772269 0)
(1.00036 7.46181e-05 0)
(1.00013 -0.000823644 0)
(0.99974 0.000193713 0)
(1.0002 -0.00102207 0)
(1.00076 0.00157922 0)
(1.00149 -3.89146e-06 0)
(1.00218 0.00158365 0)
(1.00288 -0.000234413 0)
(1.00385 0.00147447 0)
(1.00383 -0.000619024 0)
(1.0044 0.00219887 0)
(1.00459 -0.000982833 0)
(1.00497 0.00284125 0)
(1.00567 -0.000683145 0)
(1.0051 0.0026102 0)
(1.00548 0.000956368 0)
(1.00472 0.00226368 0)
(1.00376 0.00357329 0)
(1.00306 0.00475937 0)
(1.00196 0.00779748 0)
(1.00038 7.62623e-05 0)
(1.00011 -0.000836263 0)
(0.999752 0.000206975 0)
(1.00022 -0.00103089 0)
(1.00082 0.00154206 0)
(1.00153 -1.87176e-05 0)
(1.00221 0.00152198 0)
(1.00288 -0.000221946 0)
(1.00384 0.00139283 0)
(1.00385 -0.000549345 0)
(1.00439 0.00202921 0)
(1.00462 -0.000815833 0)
(1.00499 0.00255394 0)
(1.00568 -0.000399263 0)
(1.00519 0.00230796 0)
(1.00549 0.00126639 0)
(1.00486 0.00222748 0)
(1.00391 0.00381517 0)
(1.00331 0.00502813 0)
(1.00233 0.00785748 0)
(1.00039 7.75221e-05 0)
(1.0001 -0.000848016 0)
(0.999763 0.000218905 0)
(1.00025 -0.00103779 0)
(1.00087 0.00149826 0)
(1.00155 -2.79731e-05 0)
(1.00223 0.00144991 0)
(1.00288 -0.000198816 0)
(1.00384 0.00129689 0)
(1.00386 -0.00046773 0)
(1.00438 0.00184307 0)
(1.00464 -0.000647038 0)
(1.00501 0.00227003 0)
(1.00568 -0.000143371 0)
(1.00526 0.00205324 0)
(1.0055 0.00151658 0)
(1.005 0.00224892 0)
(1.00408 0.00401019 0)
(1.00356 0.00530386 0)
(1.00271 0.00791239 0)
(1.00039 7.82715e-05 0)
(1.0001 -0.000858608 0)
(0.999774 0.000228504 0)
(1.00028 -0.00104136 0)
(1.00091 0.00144505 0)
(1.00156 -2.87923e-05 0)
(1.00224 0.00136525 0)
(1.00288 -0.000162606 0)
(1.00383 0.00118451 0)
(1.00387 -0.000376341 0)
(1.00437 0.00164894 0)
(1.00466 -0.000481965 0)
(1.00502 0.00199614 0)
(1.00567 7.81954e-05 0)
(1.00534 0.00184717 0)
(1.00551 0.00171412 0)
(1.00514 0.00231318 0)
(1.00426 0.00417197 0)
(1.00381 0.00557478 0)
(1.00307 0.00797493 0)
(1.00039 7.84623e-05 0)
(1.0001 -0.00086757 0)
(0.999785 0.000233792 0)
(1.0003 -0.00103975 0)
(1.00094 0.00138098 0)
(1.00156 -2.04017e-05 0)
(1.00224 0.00126751 0)
(1.00287 -0.000113777 0)
(1.00383 0.00105675 0)
(1.00388 -0.00027684 0)
(1.00436 0.00145085 0)
(1.00466 -0.00032765 0)
(1.00503 0.00174883 0)
(1.00567 0.000262405 0)
(1.00541 0.00168724 0)
(1.00554 0.0018713 0)
(1.00528 0.0024045 0)
(1.00446 0.00430998 0)
(1.00406 0.00583319 0)
(1.00343 0.00805247 0)
(1.00039 7.78364e-05 0)
(1.0001 -0.000873171 0)
(0.999795 0.000233167 0)
(1.00033 -0.00103212 0)
(1.00098 0.00130522 0)
(1.00156 -1.54614e-06 0)
(1.00225 0.00115527 0)
(1.00287 -5.52547e-05 0)
(1.00382 0.000919127 0)
(1.00389 -0.000177602 0)
(1.00436 0.00125633 0)
(1.00467 -0.000195543 0)
(1.00505 0.00153772 0)
(1.00566 0.000406685 0)
(1.00548 0.00156717 0)
(1.00557 0.00200075 0)
(1.00543 0.00251594 0)
(1.00468 0.00443001 0)
(1.00432 0.00607445 0)
(1.00379 0.00814634 0)
(1.00039 7.61382e-05 0)
(1.00011 -0.000873152 0)
(0.999805 0.000225474 0)
(1.00036 -0.00101722 0)
(1.00101 0.00121571 0)
(1.00157 2.77049e-05 0)
(1.00225 0.00102949 0)
(1.00286 7.78411e-06 0)
(1.00382 0.000775788 0)
(1.00389 -8.41065e-05 0)
(1.00435 0.00108044 0)
(1.00468 -9.38091e-05 0)
(1.00507 0.00135848 0)
(1.00566 0.000509603 0)
(1.00556 0.00147503 0)
(1.00563 0.0021073 0)
(1.00558 0.00264374 0)
(1.00491 0.00453404 0)
(1.00459 0.00629402 0)
(1.00414 0.00825498 0)
(1.00038 7.28257e-05 0)
(1.00011 -0.000866645 0)
(0.999814 0.000208921 0)
(1.0004 -0.00099157 0)
(1.00105 0.00111157 0)
(1.00157 6.63914e-05 0)
(1.00226 0.000894051 0)
(1.00285 7.3885e-05 0)
(1.00381 0.00063338 0)
(1.0039 -4.85041e-06 0)
(1.00434 0.000926916 0)
(1.00468 -2.65248e-05 0)
(1.00508 0.00120677 0)
(1.00566 0.000582784 0)
(1.00564 0.00140321 0)
(1.00569 0.00219619 0)
(1.00573 0.00278432 0)
(1.00517 0.00462529 0)
(1.00487 0.00648473 0)
(1.00448 0.00837472 0)
(1.00038 6.83979e-05 0)
(1.00012 -0.00085416 0)
(0.999822 0.000180196 0)
(1.00043 -0.000955749 0)
(1.00108 0.00099338 0)
(1.00157 0.000115064 0)
(1.00226 0.000750897 0)
(1.00284 0.000141944 0)
(1.00381 0.000502697 0)
(1.00391 4.7271e-05 0)
(1.00433 0.000794622 0)
(1.00469 8.48869e-06 0)
(1.0051 0.00107477 0)
(1.00567 0.000640457 0)
(1.00573 0.00134902 0)
(1.00578 0.00227467 0)
(1.00589 0.00293722 0)
(1.00544 0.00471264 0)
(1.00517 0.00664248 0)
(1.00483 0.00850173 0)
(1.00037 6.28121e-05 0)
(1.00013 -0.000833061 0)
(0.999829 0.00013748 0)
(1.00046 -0.000912259 0)
(1.00112 0.000862823 0)
(1.00157 0.000170026 0)
(1.00227 0.000607745 0)
(1.00284 0.000198643 0)
(1.0038 0.000390247 0)
(1.00391 7.06889e-05 0)
(1.00432 0.000683525 0)
(1.0047 2.16697e-05 0)
(1.00512 0.000954869 0)
(1.00568 0.000691559 0)
(1.00582 0.00131332 0)
(1.00588 0.00234986 0)
(1.00606 0.00310274 0)
(1.00572 0.00480508 0)
(1.00548 0.00676682 0)
(1.00517 0.00862577 0)
(1.00036 5.43439e-05 0)
(1.00014 -0.00079994 0)
(0.999836 8.31106e-05 0)
(1.00049 -0.000860636 0)
(1.00116 0.000722795 0)
(1.00157 0.000223343 0)
(1.00227 0.000471662 0)
(1.00283 0.000234775 0)
(1.00379 0.00029658 0)
(1.00392 6.61537e-05 0)
(1.0043 0.000587168 0)
(1.0047 2.61981e-05 0)
(1.00515 0.000842715 0)
(1.00569 0.000748369 0)
(1.00592 0.00131198 0)
(1.006 0.00243901 0)
(1.00624 0.00328424 0)
(1.00601 0.00490998 0)
(1.00581 0.00686048 0)
(1.00553 0.00872929 0)
(1.00035 4.46105e-05 0)
(1.00015 -0.000756934 0)
(0.999843 2.09426e-05 0)
(1.00051 -0.000803738 0)
(1.0012 0.000579036 0)
(1.00157 0.000266835 0)
(1.00228 0.000350719 0)
(1.00282 0.000248681 0)
(1.00378 0.000221965 0)
(1.00392 4.16857e-05 0)
(1.00429 0.000500125 0)
(1.00471 2.83611e-05 0)
(1.00518 0.000744124 0)
(1.00571 0.000823081 0)
(1.00602 0.00136551 0)
(1.00613 0.00255607 0)
(1.00643 0.00348335 0)
(1.0063 0.00502918 0)
(1.00615 0.00692915 0)
(1.00589 0.00879613 0)
(1.00034 3.38167e-05 0)
(1.00016 -0.000704499 0)
(0.999849 -5.19823e-05 0)
(1.00054 -0.000745871 0)
(1.00123 0.000438249 0)
(1.00157 0.000296652 0)
(1.00228 0.000252704 0)
(1.00281 0.00023601 0)
(1.00376 0.000161346 0)
(1.00393 8.0733e-06 0)
(1.00428 0.000425305 0)
(1.00471 3.83736e-05 0)
(1.00521 0.000686461 0)
(1.00575 0.000934553 0)
(1.00613 0.0014822 0)
(1.00629 0.00269513 0)
(1.00662 0.00369291 0)
(1.00659 0.00515813 0)
(1.00651 0.00698097 0)
(1.00626 0.00882078 0)
(1.00033 2.12991e-05 0)
(1.00016 -0.000643837 0)
(0.999854 -0.000132322 0)
(1.00056 -0.000692492 0)
(1.00127 0.000308029 0)
(1.00157 0.000303948 0)
(1.00227 0.000172557 0)
(1.00281 0.000196064 0)
(1.00374 0.000112278 0)
(1.00393 -3.0185e-05 0)
(1.00427 0.000361599 0)
(1.00471 7.06832e-05 0)
(1.00525 0.000688011 0)
(1.00579 0.00108679 0)
(1.00625 0.00164376 0)
(1.00645 0.00283073 0)
(1.00682 0.00389019 0)
(1.00688 0.00528236 0)
(1.00686 0.00701622 0)
(1.00664 0.00880247 0)
(1.00032 8.45915e-06 0)
(1.00016 -0.000578221 0)
(0.999857 -0.000210792 0)
(1.00058 -0.000654857 0)
(1.00131 0.00019666 0)
(1.00156 0.000283533 0)
(1.00226 0.000108969 0)
(1.0028 0.00014653 0)
(1.00372 7.16717e-05 0)
(1.00393 -6.30055e-05 0)
(1.00426 0.000324556 0)
(1.00472 0.00013745 0)
(1.00531 0.000738588 0)
(1.00585 0.00125775 0)
(1.00637 0.00182067 0)
(1.00662 0.00294802 0)
(1.00703 0.00405731 0)
(1.00717 0.0053951 0)
(1.00722 0.00703791 0)
(1.00702 0.00875 0)
(1.00031 -4.04146e-06 0)
(1.00016 -0.00051046 0)
(0.999857 -0.00028054 0)
(1.0006 -0.00063877 0)
(1.00134 0.000105735 0)
(1.00156 0.000241168 0)
(1.00225 5.98456e-05 0)
(1.00279 0.000103741 0)
(1.0037 3.05922e-05 0)
(1.00393 -7.22048e-05 0)
(1.00425 0.000325986 0)
(1.00473 0.000242748 0)
(1.00537 0.000823617 0)
(1.00591 0.00143486 0)
(1.00648 0.00199871 0)
(1.0068 0.00305633 0)
(1.00725 0.00419221 0)
(1.00745 0.00550198 0)
(1.00757 0.00705663 0)
(1.00739 0.00868118 0)
(1.0003 -1.63629e-05 0)
(1.00015 -0.000442813 0)
(0.999854 -0.000332117 0)
(1.00062 -0.000649257 0)
(1.00137 3.15921e-05 0)
(1.00155 0.000183412 0)
(1.00224 1.23128e-05 0)
(1.00277 7.05975e-05 0)
(1.00367 -7.2316e-06 0)
(1.00393 -5.83549e-05 0)
(1.00425 0.000364586 0)
(1.00475 0.000380153 0)
(1.00543 0.000926711 0)
(1.00599 0.00159984 0)
(1.0066 0.00216777 0)
(1.00698 0.00315867 0)
(1.00747 0.00429466 0)
(1.00774 0.00559224 0)
(1.00792 0.00706422 0)
(1.00776 0.00859356 0)
(1.00028 -2.62952e-05 0)
(1.00014 -0.000382322 0)
(0.999846 -0.0003546 0)
(1.00063 -0.000690229 0)
(1.00139 -3.56489e-05 0)
(1.00155 0.000120794 0)
(1.00223 -4.41702e-05 0)
(1.00276 4.65302e-05 0)
(1.00365 -1.74066e-05 0)
(1.00393 -2.39649e-05 0)
(1.00426 0.000436202 0)
(1.00477 0.000538332 0)
(1.0055 0.00103665 0)
(1.00607 0.00173562 0)
(1.00671 0.00232305 0)
(1.00716 0.00325064 0)
(1.0077 0.0043661 0)
(1.00803 0.00564764 0)
(1.00826 0.00704642 0)
(1.00812 0.0084798 0)
(1.00027 -3.2377e-05 0)
(1.00013 -0.000334751 0)
(0.999831 -0.000344189 0)
(1.00064 -0.000749897 0)
(1.00142 -0.000101311 0)
(1.00154 6.85679e-05 0)
(1.00221 -0.000107303 0)
(1.00274 3.69723e-05 0)
(1.00363 8.5389e-06 0)
(1.00394 2.71745e-05 0)
(1.00428 0.000525221 0)
(1.00479 0.000706536 0)
(1.00557 0.00115366 0)
(1.00615 0.00185237 0)
(1.00683 0.0024728 0)
(1.00733 0.00334187 0)
(1.00794 0.00441638 0)
(1.00832 0.00566737 0)
(1.00859 0.00700352 0)
(1.00846 0.00834732 0)
(1.00026 -3.61342e-05 0)
(1.00012 -0.000298546 0)
(0.999811 -0.000306296 0)
(1.00065 -0.000814063 0)
(1.00145 -0.000174702 0)
(1.00153 2.83064e-05 0)
(1.0022 -0.0001678 0)
(1.00273 3.73739e-05 0)
(1.00361 6.80512e-05 0)
(1.00395 9.54194e-05 0)
(1.0043 0.000620558 0)
(1.00481 0.000876687 0)
(1.00563 0.00127397 0)
(1.00624 0.00195719 0)
(1.00695 0.00261681 0)
(1.00751 0.00344046 0)
(1.00818 0.00445503 0)
(1.00861 0.00565621 0)
(1.00892 0.00693447 0)
(1.0088 0.00819837 0)
(1.00024 -3.58579e-05 0)
(1.0001 -0.000280312 0)
(0.999785 -0.00024514 0)
(1.00065 -0.000868125 0)
(1.00147 -0.000265402 0)
(1.00151 -2.92532e-06 0)
(1.00218 -0.000216136 0)
(1.00273 3.62471e-05 0)
(1.00359 0.000157128 0)
(1.00396 0.000188334 0)
(1.00433 0.000713679 0)
(1.00483 0.00103574 0)
(1.00569 0.00139212 0)
(1.00634 0.00204823 0)
(1.00707 0.00274335 0)
(1.00768 0.00354023 0)
(1.00841 0.00448559 0)
(1.0089 0.00561834 0)
(1.00925 0.00683646 0)
(1.00913 0.00803077 0)
(1.00023 -3.08379e-05 0)
(1.00009 -0.000283021 0)
(0.999755 -0.000168689 0)
(1.00064 -0.000889804 0)
(1.0015 -0.000372882 0)
(1.0015 -1.70171e-05 0)
(1.00217 -0.00024094 0)
(1.00273 4.25544e-05 0)
(1.00357 0.000260637 0)
(1.00397 0.000304063 0)
(1.00436 0.000804778 0)
(1.00486 0.00118107 0)
(1.00575 0.00150943 0)
(1.00644 0.0021268 0)
(1.0072 0.00284297 0)
(1.00785 0.00363185 0)
(1.00863 0.00451483 0)
(1.00919 0.00556695 0)
(1.00957 0.00671589 0)
(1.00945 0.00784507 0)
(1.00021 -2.2367e-05 0)
(1.00009 -0.000305808 0)
(0.999725 -8.50815e-05 0)
(1.00062 -0.000863542 0)
(1.00153 -0.000488144 0)
(1.00149 -2.98963e-05 0)
(1.00215 -0.000243437 0)
(1.00274 5.48037e-05 0)
(1.00357 0.000368507 0)
(1.00398 0.000438541 0)
(1.0044 0.000897316 0)
(1.00489 0.00131718 0)
(1.00581 0.00162979 0)
(1.00655 0.00219829 0)
(1.00734 0.00291539 0)
(1.00802 0.00370724 0)
(1.00885 0.00454493 0)
(1.00947 0.00551441 0)
(1.00989 0.00658254 0)
(1.00977 0.007644 0)
(1.0002 -1.02075e-05 0)
(1.00008 -0.000343915 0)
(0.999696 3.92519e-06 0)
(1.00059 -0.000799145 0)
(1.00156 -0.000592336 0)
(1.00149 -4.86369e-05 0)
(1.00214 -0.000223844 0)
(1.00276 6.99512e-05 0)
(1.00357 0.00047291 0)
(1.00399 0.000584255 0)
(1.00444 0.000992451 0)
(1.00492 0.00144577 0)
(1.00586 0.00175593 0)
(1.00665 0.00226721 0)
(1.00748 0.00296477 0)
(1.00819 0.00375967 0)
(1.00907 0.00456862 0)
(1.00973 0.00546305 0)
(1.0102 0.00644222 0)
(1.01009 0.00742977 0)
(1.00018 4.18817e-06 0)
(1.00008 -0.000387832 0)
(0.999673 8.4959e-05 0)
(1.00055 -0.000707344 0)
(1.00159 -0.000670052 0)
(1.0015 -6.6038e-05 0)
(1.00213 -0.000178795 0)
(1.00278 9.36919e-05 0)
(1.00358 0.000568812 0)
(1.00401 0.000731682 0)
(1.00449 0.0010905 0)
(1.00496 0.00156501 0)
(1.00591 0.00188987 0)
(1.00675 0.00234252 0)
(1.00764 0.00300022 0)
(1.00838 0.0037889 0)
(1.00928 0.00457809 0)
(1.00999 0.00540889 0)
(1.01049 0.00629693 0)
(1.01039 0.00720311 0)
(1.00017 1.84669e-05 0)
(1.00009 -0.00043374 0)
(0.999657 0.000139418 0)
(1.00051 -0.000589468 0)
(1.00161 -0.000706727 0)
(1.00151 -7.85971e-05 0)
(1.00212 -0.000112789 0)
(1.00281 0.000127078 0)
(1.00361 0.000652922 0)
(1.00402 0.00087222 0)
(1.00453 0.00118869 0)
(1.00502 0.00166777 0)
(1.00597 0.00202432 0)
(1.00685 0.00243044 0)
(1.00779 0.00303069 0)
(1.00857 0.00379595 0)
(1.00949 0.00456733 0)
(1.01023 0.00534669 0)
(1.01077 0.00614989 0)
(1.01068 0.00697022 0)
(1.00015 3.31433e-05 0)
(1.0001 -0.000476722 0)
(0.99965 0.000165579 0)
(1.00046 -0.000455004 0)
(1.00163 -0.000699116 0)
(1.00154 -7.41246e-05 0)
(1.00212 -2.24208e-05 0)
(1.00285 0.000170783 0)
(1.00365 0.000723393 0)
(1.00404 0.00100408 0)
(1.00458 0.00128558 0)
(1.00508 0.00175128 0)
(1.00603 0.00214651 0)
(1.00694 0.00252861 0)
(1.00794 0.0030623 0)
(1.00876 0.00378115 0)
(1.00971 0.00452938 0)
(1.01047 0.0052679 0)
(1.01104 0.00599909 0)
(1.01096 0.00673497 0)
(1.00014 4.60985e-05 0)
(1.00011 -0.000510043 0)
(0.999654 0.000166838 0)
(1.00041 -0.000313228 0)
(1.00164 -0.00065401 0)
(1.00157 -5.40257e-05 0)
(1.00212 8.13658e-05 0)
(1.00288 0.000230713 0)
(1.0037 0.000782254 0)
(1.00407 0.00112737 0)
(1.00463 0.00137936 0)
(1.00515 0.00181598 0)
(1.0061 0.00224564 0)
(1.00703 0.00262952 0)
(1.00809 0.00310309 0)
(1.00896 0.00375492 0)
(1.00993 0.00446622 0)
(1.01071 0.00516827 0)
(1.01129 0.00584011 0)
(1.01122 0.00649748 0)
(1.00012 5.81437e-05 0)
(1.00012 -0.000533083 0)
(0.999669 0.000148141 0)
(1.00036 -0.000171188 0)
(1.00165 -0.000575248 0)
(1.00161 -1.42082e-05 0)
(1.00213 0.000192555 0)
(1.00292 0.000314871 0)
(1.00376 0.000841361 0)
(1.00411 0.00124108 0)
(1.00467 0.00147657 0)
(1.00522 0.00186909 0)
(1.00618 0.00231955 0)
(1.00712 0.00272223 0)
(1.00822 0.00315201 0)
(1.00914 0.0037269 0)
(1.01015 0.00438412 0)
(1.01094 0.00504732 0)
(1.01154 0.0056696 0)
(1.01147 0.00625821 0)
(1.00011 6.98878e-05 0)
(1.00014 -0.000544227 0)
(0.999696 0.000117341 0)
(1.00032 -3.9695e-05 0)
(1.00166 -0.000465444 0)
(1.00166 5.13588e-05 0)
(1.00214 0.00031648 0)
(1.00296 0.000417842 0)
(1.00382 0.00091078 0)
(1.00415 0.00134763 0)
(1.00472 0.00158314 0)
(1.0053 0.00192166 0)
(1.00627 0.00236883 0)
(1.00722 0.00279415 0)
(1.00835 0.00319786 0)
(1.00932 0.00369935 0)
(1.01036 0.00428964 0)
(1.01117 0.00490681 0)
(1.01177 0.00548514 0)
(1.0117 0.00601611 0)
(1.00009 7.84375e-05 0)
(1.00015 -0.000533706 0)
(0.999733 7.67535e-05 0)
(1.00029 8.14583e-05 0)
(1.00166 -0.000328054 0)
(1.00171 0.000141046 0)
(1.00216 0.000455443 0)
(1.00299 0.000530268 0)
(1.00389 0.00098353 0)
(1.0042 0.00145168 0)
(1.00476 0.00169434 0)
(1.00537 0.00197969 0)
(1.00637 0.00239486 0)
(1.00732 0.00283657 0)
(1.00847 0.00323135 0)
(1.00948 0.00367258 0)
(1.01056 0.0041905 0)
(1.01139 0.00475156 0)
(1.012 0.00528588 0)
(1.01192 0.00576804 0)
(1.00008 8.54683e-05 0)
(1.00016 -0.000507424 0)
(0.999778 3.69954e-05 0)
(1.00027 0.000186937 0)
(1.00167 -0.000175599 0)
(1.00176 0.000255668 0)
(1.00218 0.000610752 0)
(1.00302 0.000654853 0)
(1.00397 0.00105036 0)
(1.00426 0.00155646 0)
(1.0048 0.00181378 0)
(1.00544 0.00205025 0)
(1.00647 0.00241075 0)
(1.00744 0.00285022 0)
(1.00859 0.00324548 0)
(1.00963 0.0036407 0)
(1.01075 0.00408616 0)
(1.01161 0.00458151 0)
(1.01222 0.00506751 0)
(1.01212 0.00550704 0)
(1.00007 9.43045e-05 0)
(1.00017 -0.000479651 0)
(0.999829 1.56125e-05 0)
(1.00026 0.000269418 0)
(1.00167 -1.59787e-05 0)
(1.00182 0.00039525 0)
(1.0022 0.000784641 0)
(1.00305 0.000800069 0)
(1.00404 0.0011164 0)
(1.00433 0.00165269 0)
(1.00484 0.00194275 0)
(1.00549 0.00213358 0)
(1.00656 0.00242828 0)
(1.00755 0.00284093 0)
(1.00871 0.0032372 0)
(1.00977 0.00360063 0)
(1.01092 0.00397917 0)
(1.01181 0.00440325 0)
(1.01242 0.00483427 0)
(1.01231 0.00523329 0)
(1.00006 0.000104833 0)
(1.00017 -0.000445542 0)
(0.999886 1.14006e-05 0)
(1.00027 0.000345616 0)
(1.00168 0.000138545 0)
(1.00188 0.000544695 0)
(1.00222 0.000975001 0)
(1.00306 0.000969293 0)
(1.00412 0.00119123 0)
(1.00441 0.00172944 0)
(1.00488 0.00207455 0)
(1.00553 0.00223161 0)
(1.00665 0.00245461 0)
(1.00767 0.00281642 0)
(1.00883 0.00320433 0)
(1.0099 0.00354657 0)
(1.01107 0.00386745 0)
(1.01199 0.00421893 0)
(1.01262 0.00458761 0)
(1.0125 0.00494346 0)
(1.00005 0.000115726 0)
(1.00018 -0.000398139 0)
(0.999948 2.349e-05 0)
(1.00028 0.000428442 0)
(1.0017 0.000279852 0)
(1.00194 0.000689483 0)
(1.00225 0.00117279 0)
(1.00305 0.00116027 0)
(1.00418 0.00127964 0)
(1.00451 0.00178596 0)
(1.00493 0.00219425 0)
(1.00556 0.0023444 0)
(1.00671 0.0024942 0)
(1.00778 0.00278632 0)
(1.00895 0.00314903 0)
(1.01002 0.00347481 0)
(1.0112 0.00374928 0)
(1.01214 0.00403131 0)
(1.01279 0.00433156 0)
(1.01267 0.00463789 0)
(1.00004 0.000127745 0)
(1.00018 -0.00034116 0)
(1.00001 5.67419e-05 0)
(1.0003 0.000519869 0)
(1.00172 0.000415909 0)
(1.00202 0.000826401 0)
(1.00228 0.001373 0)
(1.00304 0.00137518 0)
(1.00422 0.00139135 0)
(1.0046 0.00183386 0)
(1.00499 0.00229143 0)
(1.00558 0.00246673 0)
(1.00675 0.00255136 0)
(1.00787 0.00276098 0)
(1.00907 0.00307671 0)
(1.01012 0.00338379 0)
(1.01131 0.00362265 0)
(1.01226 0.00384257 0)
(1.01293 0.00407144 0)
(1.01282 0.00432007 0)
(1.00003 0.000143422 0)
(1.00018 -0.000277141 0)
(1.00008 0.000105771 0)
(1.00033 0.000626028 0)
(1.00174 0.000556829 0)
(1.0021 0.000948722 0)
(1.00232 0.00156314 0)
(1.00301 0.00161291 0)
(1.00424 0.00153589 0)
(1.0047 0.00188581 0)
(1.00506 0.00236377 0)
(1.00559 0.00258519 0)
(1.00677 0.00262434 0)
(1.00793 0.00274562 0)
(1.00917 0.00299132 0)
(1.01022 0.00326843 0)
(1.01139 0.00347858 0)
(1.01235 0.00364667 0)
(1.01304 0.00380686 0)
(1.01294 0.00399135 0)
(1.00003 0.000160394 0)
(1.00018 -0.000201715 0)
(1.00016 0.000168204 0)
(1.00037 0.000750461 0)
(1.00176 0.000710768 0)
(1.00219 0.00105673 0)
(1.00237 0.00173044 0)
(1.00298 0.00186197 0)
(1.00424 0.00171869 0)
(1.00478 0.00195243 0)
(1.00514 0.0024167 0)
(1.0056 0.00268559 0)
(1.00676 0.00270769 0)
(1.00796 0.00274424 0)
(1.00925 0.00290373 0)
(1.01031 0.00313206 0)
(1.01146 0.00331329 0)
(1.0124 0.00343892 0)
(1.01311 0.00353804 0)
(1.01303 0.00365597 0)
(1.00002 0.00017776 0)
(1.00018 -0.000110757 0)
(1.00023 0.000243772 0)
(1.00041 0.000883392 0)
(1.00178 0.000882688 0)
(1.00228 0.0011621 0)
(1.00245 0.00187348 0)
(1.00294 0.00210636 0)
(1.00421 0.00193901 0)
(1.00484 0.00204897 0)
(1.00523 0.00246549 0)
(1.00562 0.00276647 0)
(1.00672 0.0027943 0)
(1.00795 0.00275755 0)
(1.00929 0.00282125 0)
(1.01037 0.00297929 0)
(1.0115 0.00312112 0)
(1.01243 0.00320884 0)
(1.01314 0.00325485 0)
(1.01307 0.00330929 0)
(1.00002 0.00019572 0)
(1.00018 -4.56843e-06 0)
(1.00031 0.000328764 0)
(1.00046 0.00102348 0)
(1.00178 0.00107307 0)
(1.00237 0.0012856 0)
(1.00254 0.00199605 0)
(1.00292 0.00233875 0)
(1.00415 0.00218253 0)
(1.00487 0.00218306 0)
(1.0053 0.00251739 0)
(1.00564 0.00283019 0)
(1.00667 0.00287247 0)
(1.0079 0.00278323 0)
(1.00929 0.00274785 0)
(1.0104 0.0028206 0)
(1.01152 0.00290517 0)
(1.01243 0.00295346 0)
(1.01312 0.00295069 0)
(1.01306 0.00294824 0)
(1.00002 0.000214081 0)
(1.00018 0.00011322 0)
(1.00039 0.000428365 0)
(1.00051 0.00116823 0)
(1.00178 0.00128167 0)
(1.00244 0.00143047 0)
(1.00264 0.00210847 0)
(1.00291 0.00255203 0)
(1.00407 0.00244305 0)
(1.00486 0.00235487 0)
(1.00536 0.00258776 0)
(1.00566 0.0028833 0)
(1.00661 0.00294184 0)
(1.00781 0.0028177 0)
(1.00922 0.0026919 0)
(1.01038 0.00266667 0)
(1.0115 0.0026794 0)
(1.01238 0.00267746 0)
(1.01306 0.00262943 0)
(1.013 0.00257396 0)
(1.00002 0.000233908 0)
(1.00018 0.000242642 0)
(1.00047 0.000540743 0)
(1.00057 0.00131017 0)
(1.00178 0.00150817 0)
(1.0025 0.00160303 0)
(1.00274 0.0022248 0)
(1.00291 0.00274519 0)
(1.00398 0.00271172 0)
(1.00481 0.0025636 0)
(1.00539 0.00268746 0)
(1.00567 0.00293613 0)
(1.00653 0.00300212 0)
(1.00767 0.0028553 0)
(1.0091 0.00265195 0)
(1.01029 0.00252229 0)
(1.01143 0.00245073 0)
(1.0123 0.00238608 0)
(1.01295 0.00229141 0)
(1.01289 0.00218458 0)
(1.00002 0.000251982 0)
(1.00017 0.000383251 0)
(1.00054 0.000667122 0)
(1.00064 0.0014481 0)
(1.00177 0.00174098 0)
(1.00253 0.00181104 0)
(1.00285 0.0023552 0)
(1.00293 0.00292737 0)
(1.00388 0.00297791 0)
(1.00472 0.00280497 0)
(1.00538 0.00282135 0)
(1.00566 0.0030008 0)
(1.00644 0.00305468 0)
(1.0075 0.00289236 0)
(1.00892 0.00262187 0)
(1.01013 0.00239015 0)
(1.0113 0.00222142 0)
(1.01216 0.00208238 0)
(1.01279 0.00193134 0)
(1.01272 0.0017731 0)
(1.00003 0.000271319 0)
(1.00016 0.000523688 0)
(1.0006 0.000814377 0)
(1.00071 0.00158704 0)
(1.00176 0.00197383 0)
(1.00255 0.00204645 0)
(1.00294 0.00250979 0)
(1.00296 0.00310114 0)
(1.00379 0.00324402 0)
(1.0046 0.00307321 0)
(1.00532 0.00299933 0)
(1.00562 0.00309257 0)
(1.00632 0.00311348 0)
(1.00729 0.00293142 0)
(1.00867 0.00260298 0)
(1.0099 0.00227276 0)
(1.01108 0.00199732 0)
(1.01194 0.00176836 0)
(1.01257 0.00154659 0)
(1.01249 0.00133016 0)
(1.00003 0.000293147 0)
(1.00014 0.000662214 0)
(1.00065 0.000977225 0)
(1.00078 0.00172818 0)
(1.00175 0.00220808 0)
(1.00254 0.00230822 0)
(1.00302 0.0026972 0)
(1.00301 0.00328044 0)
(1.0037 0.00350775 0)
(1.00445 0.00337157 0)
(1.00521 0.00322752 0)
(1.00553 0.00322628 0)
(1.00617 0.0031938 0)
(1.00704 0.00297773 0)
(1.00835 0.00259632 0)
(1.00957 0.00216735 0)
(1.01077 0.00178017 0)
(1.01164 0.00144125 0)
(1.01226 0.00113369 0)
(1.01218 0.00084385 0)
(1.00004 0.000318041 0)
(1.00013 0.000796214 0)
(1.00068 0.00115306 0)
(1.00085 0.00187603 0)
(1.00174 0.00243202 0)
(1.00252 0.0025958 0)
(1.00307 0.00292134 0)
(1.00305 0.00348125 0)
(1.00362 0.00378158 0)
(1.00428 0.00369633 0)
(1.00505 0.00351652 0)
(1.00539 0.00341874 0)
(1.00598 0.00331442 0)
(1.00673 0.00304792 0)
(1.00795 0.0026034 0)
(1.00913 0.00207991 0)