/*--------------------------------*- C++ -*----------------------------------*\
| =========                 |                                                 |
| \\      /  F ield         | OpenFOAM: The Open Source CFD Toolbox           |
|  \\    /   O peration     | Version:  v2012                                 |
|   \\  /    A nd           | Website:  www.openfoam.com                      |
|    \\/     M anipulation  |                                                 |
\*---------------------------------------------------------------------------*/
FoamFile
{
    version     2.0;
    format      ascii;
    class       surfaceScalarField;
    location    "2.2";
    object      phi;
}
// * * * * * * * * * * * * * * * * * * * * * * * * * * * * * * * * * * * * * //

dimensions      [0 3 -1 0 0 0 0];
oriented        oriented;


internalField   nonuniform List<scalar> 
34900
(
1.17505e-06
3.40745e-09
1.16773e-06
-7.16009e-08
1.17124e-06
1.35416e-08
1.1674e-06
-1.46044e-07
1.17208e-06
7.40029e-08
1.16791e-06
-1.31174e-07
1.17587e-06
2.89853e-07
1.16459e-06
-1.97794e-07
1.17531e-06
3.72242e-07
1.15706e-06
-1.98553e-07
1.16778e-06
2.59253e-07
1.14932e-06
-1.05939e-07
1.15908e-06
1.40713e-07
1.14132e-06
-3.9396e-08
1.15097e-06
6.90382e-08
1.1344e-06
2.08738e-08
1.1434e-06
4.50987e-08
1.12714e-06
2.01377e-08
1.1307e-06
7.57422e-08
2.0747e-08
1.09217e-06
1.22977e-06
-2.09929e-09
1.22425e-06
-6.60853e-08
1.22624e-06
1.15535e-08
1.22402e-06
-1.4382e-07
1.22678e-06
7.12393e-08
1.22455e-06
-1.28945e-07
1.22885e-06
2.8555e-07
1.22055e-06
-1.89485e-07
1.22595e-06
3.66841e-07
1.213e-06
-1.85603e-07
1.21622e-06
2.56032e-07
1.20684e-06
-9.65616e-08
1.20659e-06
1.40965e-07
1.20212e-06
-3.49251e-08
1.19771e-06
7.34493e-08
1.20014e-06
1.84363e-08
1.18861e-06
5.66375e-08
1.19758e-06
1.11674e-08
1.17212e-06
1.01196e-07
1.65134e-08
1.17635e-06
1.28565e-06
-4.96338e-09
1.28439e-06
-6.48261e-08
1.28352e-06
1.24179e-08
1.28443e-06
-1.44731e-07
1.28373e-06
7.19482e-08
1.28474e-06
-1.29961e-07
1.28504e-06
2.85251e-07
1.28059e-06
-1.85031e-07
1.28129e-06
3.6614e-07
1.27435e-06
-1.78665e-07
1.27141e-06
2.58973e-07
1.26984e-06
-9.4989e-08
1.26336e-06
1.47441e-07
1.26603e-06
-3.75935e-08
1.25691e-06
8.25655e-08
1.26313e-06
1.22211e-08
1.2519e-06
6.78702e-08
1.25637e-06
6.69472e-09
1.24382e-06
1.13746e-07
2.96163e-08
1.23072e-06
1.34351e-06
-4.37424e-09
1.3472e-06
-6.85114e-08
1.3433e-06
1.63129e-08
1.34761e-06
-1.49036e-07
1.34365e-06
7.59102e-08
1.34749e-06
-1.33804e-07
1.34555e-06
2.87192e-07
1.34419e-06
-1.83678e-07
1.34335e-06
3.66982e-07
1.34027e-06
-1.75577e-07
1.33597e-06
2.6327e-07
1.33677e-06
-9.57883e-08
1.33101e-06
1.53196e-07
1.33278e-06
-3.93624e-08
1.32691e-06
8.84384e-08
1.32905e-06
1.00777e-08
1.3235e-06
7.34198e-08
1.32162e-06
8.57356e-09
1.31641e-06
1.18958e-07
4.68529e-08
1.29917e-06
1.40454e-06
-5.55919e-10
1.4119e-06
-7.58797e-08
1.40623e-06
2.19912e-08
1.41241e-06
-1.55224e-07
1.40708e-06
8.12466e-08
1.41176e-06
-1.38488e-07
1.41036e-06
2.88598e-07
1.41015e-06
-1.83475e-07
1.41096e-06
3.66178e-07
1.40881e-06
-1.73431e-07
1.40683e-06
2.65254e-07
1.40638e-06
-9.53471e-08
1.40394e-06
1.55644e-07
1.4029e-06
-3.83281e-08
1.40026e-06
9.10826e-08
1.39944e-06
1.08966e-08
1.39638e-06
7.64786e-08
1.39199e-06
1.29614e-08
1.38878e-06
1.22174e-07
6.42511e-08
1.37138e-06
1.46994e-06
5.18118e-09
1.47856e-06
-8.45028e-08
1.47303e-06
2.75274e-08
1.47892e-06
-1.61123e-07
1.47422e-06
8.59525e-08
1.4778e-06
-1.42073e-07
1.47852e-06
2.87886e-07
1.4781e-06
-1.8306e-07
1.48156e-06
3.6272e-07
1.47903e-06
-1.709e-07
1.47996e-06
2.64324e-07
1.47778e-06
-9.31687e-08
1.47792e-06
1.55502e-07
1.47504e-06
-3.54496e-08
1.4741e-06
9.20222e-08
1.4718e-06
1.31956e-08
1.46987e-06
7.84122e-08
1.46395e-06
1.8883e-08
1.46221e-06
1.2391e-07
8.17234e-08
1.44474e-06
1.54032e-06
1.10734e-08
1.54798e-06
-9.21608e-08
1.54402e-06
3.14852e-08
1.54815e-06
-1.65251e-07
1.54495e-06
8.91526e-08
1.54658e-06
-1.43696e-07
1.54927e-06
2.85195e-07
1.54826e-06
-1.82048e-07
1.5538e-06
3.57173e-07
1.55077e-06
-1.67871e-07
1.55392e-06
2.61174e-07
1.55059e-06
-8.98399e-08
1.55244e-06
1.53661e-07
1.54852e-06
-3.15312e-08
1.54878e-06
9.1755e-08
1.54542e-06
1.65553e-08
1.54459e-06
7.92518e-08
1.53724e-06
2.62252e-08
1.5369e-06
1.24252e-07
9.88492e-08
1.51978e-06
1.61542e-06
1.5781e-08
1.62101e-06
-9.77505e-08
1.61899e-06
3.35044e-08
1.62107e-06
-1.67326e-07
1.61915e-06
9.1066e-08
1.61896e-06
-1.43499e-07
1.62275e-06
2.81405e-07
1.62118e-06
-1.80484e-07
1.62801e-06
3.50343e-07
1.62462e-06
-1.64477e-07
1.62937e-06
2.56424e-07
1.62534e-06
-8.58141e-08
1.62854e-06
1.50465e-07
1.62389e-06
-2.68806e-08
1.62536e-06
9.0287e-08
1.62104e-06
2.08742e-08
1.62136e-06
7.89285e-08
1.6128e-06
3.4787e-08
1.6135e-06
1.2355e-07
1.15002e-07
1.59735e-06
1.69451e-06
1.8842e-08
1.69806e-06
-1.01296e-07
1.69752e-06
3.40414e-08
1.69808e-06
-1.67886e-07
1.69692e-06
9.22318e-08
1.69547e-06
-1.42057e-07
1.69968e-06
2.77197e-07
1.69762e-06
-1.78418e-07
1.70524e-06
3.42723e-07
1.70147e-06
-1.60707e-07
1.70749e-06
2.50399e-07
1.7029e-06
-8.12283e-08
1.70739e-06
1.45983e-07
1.70207e-06
-2.15629e-08
1.70479e-06
8.75681e-08
1.69957e-06
2.60895e-08
1.70101e-06
7.74932e-08
1.69153e-06
4.42622e-08
1.69281e-06
1.22273e-07
1.29618e-07
1.6782e-06
1.77706e-06
2.05046e-08
1.77916e-06
-1.03396e-07
1.77942e-06
3.37789e-08
1.77919e-06
-1.67657e-07
1.77846e-06
9.29659e-08
1.77636e-06
-1.39958e-07
1.78075e-06
2.72806e-07
1.77818e-06
-1.75843e-07
1.78637e-06
3.34525e-07
1.78208e-06
-1.56415e-07
1.78923e-06
2.43248e-07
1.78402e-06
-7.60131e-08
1.78978e-06
1.4022e-07
1.78375e-06
-1.55357e-08
1.78773e-06
8.35895e-08
1.78169e-06
3.21337e-08
1.78405e-06
7.51295e-08
1.77406e-06
5.42549e-08
1.77538e-06
1.20948e-07
1.4223e-07
1.76277e-06
1.86297e-06
2.12784e-08
1.86426e-06
-1.04687e-07
1.86481e-06
3.32386e-08
1.8643e-06
-1.67155e-07
1.86396e-06
9.33115e-08
1.86163e-06
-1.37633e-07
1.86626e-06
2.68178e-07
1.86317e-06
-1.72749e-07
1.87189e-06
3.25798e-07
1.86689e-06
-1.51416e-07
1.87511e-06
2.35035e-07
1.86911e-06
-7.00134e-08
1.87614e-06
1.33188e-07
1.86933e-06
-8.72434e-09
1.8745e-06
7.84182e-08
1.86774e-06
3.88883e-08
1.87071e-06
7.21607e-08
1.86068e-06
6.42894e-08
1.8615e-06
1.20128e-07
1.52508e-07
1.85122e-06
1.95252e-06
2.15984e-08
1.95343e-06
-1.05595e-07
1.95397e-06
3.27e-08
1.95343e-06
-1.66622e-07
1.95354e-06
9.32083e-08
1.95123e-06
-1.35328e-07
1.95624e-06
2.63168e-07
1.95262e-06
-1.69134e-07
1.96192e-06
3.16508e-07
1.95605e-06
-1.45553e-07
1.96531e-06
2.2578e-07
1.95837e-06
-6.30765e-08
1.96663e-06
1.24925e-07
1.959e-06
-1.08716e-09
1.96519e-06
7.2222e-08
1.95794e-06
4.61402e-08
1.96107e-06
6.90327e-08
1.9515e-06
7.38559e-08
1.95134e-06
1.20286e-07
1.60328e-07
1.94352e-06
2.04606e-06
2.17232e-08
2.04682e-06
-1.0635e-07
2.04725e-06
3.22696e-08
2.04674e-06
-1.66107e-07
2.04733e-06
9.2617e-08
2.04512e-06
-1.33125e-07
2.05064e-06
2.57648e-07
2.0465e-06
-1.6499e-07
2.05643e-06
3.06574e-07
2.04961e-06
-1.38724e-07
2.05991e-06
2.15472e-07
2.05194e-06
-5.5103e-08
2.06136e-06
1.15504e-07
2.05294e-06
7.33636e-09
2.05988e-06
6.52786e-08
2.05246e-06
5.35633e-08
2.05522e-06
6.62697e-08
2.0466e-06
8.24775e-08
2.04517e-06
1.21712e-07
1.65826e-07
2.03967e-06
2.14395e-06
2.17742e-08
2.14467e-06
-1.07067e-07
2.14497e-06
3.19624e-08
2.14444e-06
-1.65577e-07
2.14552e-06
9.15431e-08
2.14338e-06
-1.30991e-07
2.1495e-06
2.5153e-07
2.1448e-06
-1.6029e-07
2.15548e-06
2.95899e-07
2.14763e-06
-1.30876e-07
2.15901e-06
2.04092e-07
2.14997e-06
-4.6067e-08
2.16044e-06
1.05043e-07
2.15137e-06
1.63972e-08
2.15869e-06
5.79655e-08
2.15151e-06
6.07445e-08
2.15338e-06
6.43942e-08
2.14607e-06
8.97935e-08
2.14333e-06
1.24452e-07
1.69379e-07
2.13977e-06
2.24646e-06
2.18018e-08
2.2472e-06
-1.07802e-07
2.24741e-06
3.1752e-08
2.24681e-06
-1.64977e-07
2.24834e-06
9.0012e-08
2.24618e-06
-1.2883e-07
2.25295e-06
2.44755e-07
2.24765e-06
-1.54987e-07
2.25916e-06
2.84383e-07
2.25028e-06
-1.21991e-07
2.26275e-06
1.91624e-07
2.2527e-06
-3.60198e-08
2.26403e-06
9.37175e-08
2.2546e-06
2.58275e-08
2.26182e-06
5.07412e-08
2.25534e-06
6.72292e-08
2.25587e-06
6.38558e-08
2.25006e-06
9.56048e-08
2.24618e-06
1.28334e-07
1.71512e-07
2.24405e-06
2.35385e-06
2.18273e-08
2.35464e-06
-1.08587e-07
2.35479e-06
3.15947e-08
2.35407e-06
-1.64254e-07
2.35604e-06
8.8039e-08
2.35374e-06
-1.26524e-07
2.36121e-06
2.37277e-07
2.35524e-06
-1.49017e-07
2.36769e-06
2.71937e-07
2.35777e-06
-1.12078e-07
2.37132e-06
1.78082e-07
2.36039e-06
-2.50937e-08
2.37233e-06
8.17815e-08
2.36291e-06
3.52453e-08
2.36954e-06
4.41116e-08
2.36418e-06
7.25922e-08
2.36309e-06
6.49457e-08
2.35877e-06
9.99255e-08
2.3541e-06
1.32995e-07
1.72798e-07
2.35282e-06
2.46636e-06
2.18598e-08
2.46721e-06
-1.09431e-07
2.46736e-06
3.14378e-08
2.46647e-06
-1.63358e-07
2.46889e-06
8.56125e-08
2.46632e-06
-1.2395e-07
2.47455e-06
2.29044e-07
2.46785e-06
-1.42312e-07
2.48129e-06
2.58494e-07
2.47038e-06
-1.0117e-07
2.48493e-06
1.63532e-07
2.47335e-06
-1.35096e-08
2.48555e-06
6.95765e-08
2.47661e-06
4.41852e-08
2.48215e-06
3.85789e-08
2.47823e-06
7.65091e-08
2.47544e-06
6.77326e-08
2.47236e-06
1.03007e-07
2.46743e-06
1.37929e-07
1.73774e-07
2.46645e-06
2.58425e-06
2.19012e-08
2.58514e-06
-1.1032e-07
2.58536e-06
3.1219e-08
2.58424e-06
-1.62233e-07
2.58716e-06
8.26876e-08
2.5842e-06
-1.20989e-07
2.59325e-06
2.19996e-07
2.58575e-06
-1.3481e-07
2.60022e-06
2.44017e-07
2.5884e-06
-8.93467e-08
2.60381e-06
1.48119e-07
2.59189e-06
-1.58507e-09
2.60394e-06
5.75305e-08
2.59598e-06
5.21418e-08
2.59998e-06
3.45762e-08
2.59768e-06
7.88154e-08
2.59337e-06
7.20393e-08
2.59108e-06
1.05296e-07
2.58642e-06
1.42585e-07
1.74865e-07
2.58533e-06
2.70778e-06
2.1947e-08
2.70868e-06
-1.11221e-07
2.70904e-06
3.08621e-08
2.70762e-06
-1.60811e-07
2.71112e-06
7.91887e-08
2.70766e-06
-1.17528e-07
2.71759e-06
2.10066e-07
2.70924e-06
-1.26466e-07
2.72475e-06
2.28513e-07
2.71214e-06
-7.67437e-08
2.72818e-06
1.3208e-07
2.71633e-06
1.02683e-08
2.72773e-06
4.61292e-08
2.72124e-06
5.86297e-08
2.72341e-06
3.24077e-08
2.72268e-06
7.95398e-08
2.71724e-06
7.74839e-08
2.71522e-06
1.07319e-07
2.7113e-06
1.46504e-07
1.76314e-07
2.70985e-06
2.83723e-06
2.19874e-08
2.83808e-06
-1.12077e-07
2.83867e-06
3.02723e-08
2.83687e-06
-1.59011e-07
2.84105e-06
7.50161e-08
2.83698e-06
-1.13461e-07
2.84785e-06
1.99197e-07
2.83865e-06
-1.17268e-07
2.85511e-06
2.12058e-07
2.84194e-06
-6.35783e-08
2.85827e-06
1.15753e-07
2.84697e-06
2.15669e-08
2.85723e-06
3.58631e-08
2.85261e-06
6.32557e-08
2.85283e-06
3.21894e-08
2.85345e-06
7.8916e-08
2.84737e-06
8.35678e-08
2.84514e-06
1.09548e-07
2.84222e-06
1.49427e-07
1.78157e-07
2.84037e-06
2.97287e-06
2.20084e-08
2.97361e-06
-1.12809e-07
2.97455e-06
2.93338e-08
2.97227e-06
-1.56736e-07
2.97723e-06
7.00575e-08
2.97247e-06
-1.087e-07
2.98431e-06
1.87357e-07
2.9743e-06
-1.07263e-07
2.99156e-06
1.94803e-07
2.97814e-06
-5.01567e-08
2.99433e-06
9.95578e-08
2.98411e-06
3.17912e-08
2.99279e-06
2.71813e-08
2.99028e-06
6.57661e-08
2.98864e-06
3.38248e-08
2.99023e-06
7.73249e-08
2.98401e-06
8.97892e-08
2.98125e-06
1.12315e-07
2.97934e-06
1.51335e-07
1.80253e-07
2.97724e-06
3.11502e-06
2.1993e-08
3.11553e-06
-1.13321e-07
3.11696e-06
2.79103e-08
3.1141e-06
-1.53884e-07
3.11996e-06
6.42035e-08
3.11445e-06
-1.03188e-07
3.12724e-06
1.74561e-07
3.11655e-06
-9.6571e-08
3.13436e-06
1.76997e-07
3.12108e-06
-3.68746e-08
3.13666e-06
8.39691e-08
3.12802e-06
4.04354e-08
3.13476e-06
2.04394e-08
3.13444e-06
6.60904e-08
3.13125e-06
3.70107e-08
3.13339e-06
7.5186e-08
3.12748e-06
9.57038e-08
3.12395e-06
1.15839e-07
3.12282e-06
1.5247e-07
1.82319e-07
3.12075e-06
3.26398e-06
2.19224e-08
3.26416e-06
-1.13497e-07
3.26622e-06
2.58516e-08
3.26269e-06
-1.50359e-07
3.26953e-06
5.73678e-08
3.26326e-06
-9.69208e-08
3.27692e-06
1.60898e-07
3.26576e-06
-8.54123e-08
3.28377e-06
1.58988e-07
3.2711e-06
-2.4197e-08
3.2856e-06
6.94634e-08
3.27894e-06
4.71009e-08
3.28358e-06
1.57965e-08
3.28527e-06
6.43943e-08
3.28105e-06
4.12346e-08
3.28338e-06
7.28548e-08
3.2782e-06
1.00887e-07
3.27377e-06
1.20264e-07
3.27261e-06
1.53631e-07
1.83714e-07
3.27122e-06
3.42008e-06
2.17784e-08
3.41979e-06
-1.13215e-07
3.42264e-06
2.30043e-08
3.41837e-06
-1.46088e-07
3.42623e-06
4.95108e-08
3.41928e-06
-8.99727e-08
3.43363e-06
1.4655e-07
3.42231e-06
-7.40973e-08
3.44012e-06
1.41179e-07
3.42848e-06
-1.25612e-08
3.44157e-06
5.63772e-08
3.437e-06
5.16743e-08
3.43976e-06
1.30352e-08
3.44296e-06
6.11901e-08
3.43853e-06
4.56704e-08
3.44087e-06
7.05118e-08
3.43719e-06
1.04567e-07
3.43203e-06
1.25422e-07
3.42854e-06
1.57124e-07
1.82959e-07
3.42929e-06
3.58365e-06
2.15441e-08
3.58278e-06
-1.1235e-07
3.58656e-06
1.92274e-08
3.58151e-06
-1.41039e-07
3.59036e-06
4.06561e-08
3.58289e-06
-8.25e-08
3.59766e-06
1.31777e-07
3.58655e-06
-6.29865e-08
3.60378e-06
1.23956e-07
3.59348e-06
-2.26942e-09
3.60509e-06
4.47704e-08
3.60229e-06
5.44745e-08
3.60389e-06
1.14385e-08
3.60773e-06
5.73454e-08
3.6043e-06
4.91023e-08
3.60675e-06
6.80582e-08
3.60699e-06
1.0433e-07
3.60308e-06
1.29336e-07
3.59502e-06
1.65179e-07
1.81878e-07
3.5961e-06
3.75504e-06
2.1208e-08
3.75349e-06
-1.10796e-07
3.75829e-06
1.44241e-08
3.75251e-06
-1.35258e-07
3.76224e-06
3.09274e-08
3.75452e-06
-7.47813e-08
3.76934e-06
1.16953e-07
3.75887e-06
-5.25162e-08
3.77511e-06
1.07722e-07
3.7664e-06
6.4418e-09
3.77654e-06
3.46314e-08
3.77521e-06
5.57956e-08
3.77619e-06
1.04606e-08
3.78025e-06
5.32913e-08
3.7787e-06
5.06486e-08
3.77955e-06
6.72044e-08
3.77934e-06
1.04544e-07
3.77812e-06
1.30556e-07
3.78896e-06
1.54336e-07
2.00632e-07
3.77021e-06
3.93463e-06
2.07661e-08
3.93232e-06
-1.08486e-07
3.93816e-06
8.58505e-09
3.93181e-06
-1.28907e-07
3.94215e-06
2.05864e-08
3.93462e-06
-6.72568e-08
3.94899e-06
1.0259e-07
3.93968e-06
-4.32104e-08
3.95448e-06
9.29232e-08
3.94763e-06
1.3294e-08
3.95609e-06
2.61674e-08
3.95643e-06
5.54532e-08
3.95654e-06
1.03561e-08
3.96098e-06
4.88536e-08
3.95647e-06
5.5152e-08
3.95089e-06
7.27883e-08
3.94876e-06
1.06672e-07
3.94459e-06
1.34723e-07
3.93866e-06
1.60266e-07
1.94215e-07
3.94508e-06
4.12279e-06
2.02215e-08
4.11971e-06
-1.05404e-07
4.1265e-06
1.7998e-09
4.11985e-06
-1.22256e-07
4.13045e-06
9.9808e-09
4.12362e-06
-6.04196e-08
4.13705e-06
8.91505e-08
4.12925e-06
-3.54103e-08
4.14243e-06
7.97474e-08
4.1374e-06
1.8323e-08
4.14416e-06
1.94061e-08
4.14601e-06
5.36043e-08
4.14374e-06
1.26225e-08
4.1443e-06
4.82986e-08
4.13626e-06
6.31938e-08
4.13237e-06
7.66765e-08
4.13024e-06
1.08803e-07
4.1264e-06
1.38563e-07
4.12279e-06
1.63872e-07
1.88838e-07
4.12817e-06
4.31993e-06
1.95919e-08
4.31613e-06
-1.01606e-07
4.32364e-06
-5.70258e-09
4.31709e-06
-1.15709e-07
4.32753e-06
-4.63254e-10
4.32189e-06
-5.47745e-08
4.33407e-06
7.69708e-08
4.32782e-06
-2.91658e-08
4.33952e-06
6.80547e-08
4.33587e-06
2.19703e-08
4.34076e-06
1.45181e-08
4.34172e-06
5.26427e-08
4.33474e-06
1.96026e-08
4.33433e-06
4.87034e-08
4.32817e-06
6.9359e-08
4.32416e-06
8.06834e-08
4.32227e-06
1.10691e-07
4.31966e-06
1.41176e-07
4.31796e-06
1.65575e-07
1.84842e-07
4.32195e-06
4.52646e-06
1.89099e-08
4.52208e-06
-9.72318e-08
4.52992e-06
-1.35381e-08
4.52401e-06
-1.09798e-07
4.53382e-06
-1.02812e-08
4.52981e-06
-5.07596e-08
4.54058e-06
6.62034e-08
4.53567e-06
-2.42624e-08
4.54608e-06
5.7643e-08
4.54275e-06
2.53037e-08
4.54441e-06
1.28552e-08
4.5435e-06
5.35566e-08
4.53594e-06
2.71579e-08
4.53501e-06
4.96337e-08
4.53032e-06
7.40572e-08
4.52599e-06
8.50096e-08
4.52435e-06
1.12332e-07
4.52292e-06
1.42609e-07
4.52292e-06
1.65567e-07
1.82203e-07
4.52556e-06
4.7428e-06
1.82232e-08
4.73808e-06
-9.25112e-08
4.74573e-06
-2.11906e-08
4.74101e-06
-1.05079e-07
4.74987e-06
-1.91376e-08
4.74762e-06
-4.85117e-08
4.75719e-06
5.66396e-08
4.75302e-06
-2.00937e-08
4.76199e-06
4.86728e-08
4.75746e-06
2.98321e-08
4.75578e-06
1.454e-08
4.75499e-06
5.43424e-08
4.74773e-06
3.44145e-08
4.74622e-06
5.11427e-08
4.74258e-06
7.77049e-08
4.7381e-06
8.94891e-08
4.73664e-06
1.13786e-07
4.73623e-06
1.43026e-07
4.73734e-06
1.64455e-07
1.80172e-07
4.73937e-06
4.96943e-06
1.75896e-08
4.96466e-06
-8.77443e-08
4.97154e-06
-2.80624e-08
4.96851e-06
-1.02052e-07
4.97627e-06
-2.68964e-08
4.97556e-06
-4.78083e-08
4.98436e-06
4.78455e-08
4.97987e-06
-1.56013e-08
4.98641e-06
4.21252e-08
4.98079e-06
3.54566e-08
4.97748e-06
1.7845e-08
4.97687e-06
5.49557e-08
4.97025e-06
4.10335e-08
4.96814e-06
5.32553e-08
4.96526e-06
8.05882e-08
4.96084e-06
9.39015e-08
4.95952e-06
1.15109e-07
4.96003e-06
1.42518e-07
4.96142e-06
1.63062e-07
1.77884e-07
4.96371e-06
5.20683e-06
1.70732e-08
5.20238e-06
-8.32897e-08
5.20786e-06
-3.35487e-08
5.2068e-06
-1.0099e-07
5.21364e-06
-3.37308e-08
5.21389e-06
-4.80636e-08
5.22218e-06
3.95558e-08
5.21614e-06
-9.55878e-09
5.21971e-06
3.85502e-08
5.21454e-06
4.06326e-08
5.21029e-06
2.20954e-08
5.20974e-06
5.55024e-08
5.20376e-06
4.70156e-08
5.20114e-06
5.5876e-08
5.1988e-06
8.2925e-08
5.19467e-06
9.80279e-08
5.1935e-06
1.1628e-07
5.19462e-06
1.414e-07
5.19622e-06
1.61467e-07
1.75177e-07
5.19892e-06
5.45553e-06
1.67371e-08
5.45177e-06
-7.95355e-08
5.45538e-06
-3.71529e-08
5.45613e-06
-1.01743e-07
5.4625e-06
-4.01025e-08
5.46276e-06
-4.83272e-08
5.47013e-06
3.21912e-08
5.46229e-06
-1.71975e-09
5.46362e-06
3.72245e-08
5.45942e-06
4.48261e-08
5.45476e-06
2.67581e-08
5.45409e-06
5.61693e-08
5.44866e-06
5.24457e-08
5.44567e-06
5.88674e-08
5.44373e-06
8.48662e-08
5.44009e-06
1.01669e-07
5.43907e-06
1.173e-07
5.44047e-06
1.39999e-07
5.44247e-06
1.59466e-07
1.72119e-07
5.44553e-06
5.71607e-06
1.66285e-08
5.71338e-06
-7.68452e-08
5.71487e-06
-3.86455e-08
5.71669e-06
-1.03559e-07
5.72312e-06
-4.65368e-08
5.72207e-06
-4.7273e-08
5.72764e-06
2.6613e-08
5.71972e-06
6.20603e-09
5.71937e-06
3.75757e-08
5.71611e-06
4.80838e-08
5.71135e-06
3.15144e-08
5.71043e-06
5.7088e-08
5.70548e-06
5.73953e-08
5.70223e-06
6.21186e-08
5.7006e-06
8.65004e-08
5.6976e-06
1.04669e-07
5.69668e-06
1.18215e-07
5.69819e-06
1.38488e-07
5.70069e-06
1.56968e-07
1.6872e-07
5.70409e-06
5.98905e-06
1.67712e-08
5.98772e-06
-7.55119e-08
5.98716e-06
-3.80933e-08
5.98878e-06
-1.05179e-07
5.9954e-06
-5.31553e-08
5.99227e-06
-4.41398e-08
5.99623e-06
2.26491e-08
5.98933e-06
1.31058e-08
5.98787e-06
3.90365e-08
5.98516e-06
5.07914e-08
5.98054e-06
3.61432e-08
5.97933e-06
5.82988e-08
5.9748e-06
6.19248e-08
5.97136e-06
6.55562e-08
5.96997e-06
8.78868e-08
5.96772e-06
1.06919e-07
5.96689e-06
1.19046e-07
5.96844e-06
1.36937e-07
5.97139e-06
1.54016e-07
1.6495e-07
5.97516e-06
6.2751e-06
1.716e-08
6.27526e-06
-7.56728e-08
6.27308e-06
-3.59177e-08
6.27297e-06
-1.05068e-07
6.27944e-06
-5.9617e-08
6.27489e-06
-3.95909e-08
6.27746e-06
2.00781e-08
6.27185e-06
1.87131e-08
6.26975e-06
4.11362e-08
6.26723e-06
5.33108e-08
6.26279e-06
4.05837e-08
6.26136e-06
5.9731e-08
6.25721e-06
6.60709e-08
6.25363e-06
6.91379e-08
6.25243e-06
8.90913e-08
6.25098e-06
1.08362e-07
6.25029e-06
1.19737e-07
6.25186e-06
1.35371e-07
6.25516e-06
1.50717e-07
1.60795e-07
6.25931e-06
6.57487e-06
1.77601e-08
6.57646e-06
-7.72609e-08
6.57334e-06
-3.28049e-08
6.57028e-06
-1.02003e-07
6.57624e-06
-6.5579e-08
6.57136e-06
-3.471e-08
6.57237e-06
1.90714e-08
6.56796e-06
2.31243e-08
6.56556e-06
4.35354e-08
6.56298e-06
5.58846e-08
6.5587e-06
4.48704e-08
6.55713e-06
6.12966e-08
6.55337e-06
6.98327e-08
6.54969e-06
7.28125e-08
6.54858e-06
9.02055e-08
6.54795e-06
1.08988e-07
6.54751e-06
1.20179e-07
6.54911e-06
1.33776e-07
6.55263e-06
1.47194e-07
1.56281e-07
6.55714e-06
6.88904e-06
1.85127e-08
6.8918e-06
-8.00258e-08
6.88857e-06
-2.95673e-08
6.88207e-06
-9.55048e-08
6.88704e-06
-7.05546e-08
6.88247e-06
-3.0136e-08
6.88186e-06
1.96842e-08
6.87826e-06
2.67152e-08
6.87585e-06
4.59452e-08
6.87311e-06
5.86319e-08
6.8689e-06
4.90753e-08
6.86726e-06
6.29409e-08
6.86391e-06
7.31829e-08
6.86022e-06
7.64976e-08
6.85911e-06
9.13144e-08
6.85924e-06
1.08861e-07
6.85917e-06
1.20252e-07
6.86085e-06
1.32095e-07
6.8645e-06
1.43549e-07
1.51477e-07
6.8693e-06
7.21832e-06
1.9333e-08
7.22181e-06
-8.35203e-08
7.21932e-06
-2.70791e-08
7.20954e-06
-8.57235e-08
7.2128e-06
-7.38131e-08
7.20879e-06
-2.61262e-08
7.20667e-06
2.18026e-08
7.20347e-06
2.99181e-08
7.20122e-06
4.81973e-08
7.19833e-06
6.15227e-08
7.19411e-06
5.32912e-08
7.1924e-06
6.46539e-08
7.1895e-06
7.60838e-08
7.18591e-06
8.00842e-08
7.18478e-06
9.24434e-08
7.18549e-06
1.08156e-07
7.18591e-06
1.1983e-07
7.18777e-06
1.30236e-07
7.19149e-06
1.39829e-07
1.46476e-07
7.19649e-06
7.56344e-06
2.01217e-08
7.56711e-06
-8.71893e-08
7.56609e-06
-2.60658e-08
7.55361e-06
-7.32406e-08
7.55443e-06
-7.46368e-08
7.55098e-06
-2.26697e-08
7.54754e-06
2.52372e-08
7.54431e-06
3.31468e-08
7.5423e-06
5.02146e-08
7.53936e-06
6.44566e-08
7.53506e-06
5.75968e-08
7.53325e-06
6.64596e-08
7.53083e-06
7.85074e-08
7.52747e-06
8.34405e-08
7.52636e-06
9.35524e-08
7.52739e-06
1.07133e-07
7.52841e-06
1.18805e-07
7.53055e-06
1.281e-07
7.53434e-06
1.36037e-07
1.41359e-07
7.53945e-06
7.92515e-06
2.078e-08
7.92831e-06
-9.03495e-08
7.92938e-06
-2.71376e-08
7.915e-06
-5.88543e-08
7.91279e-06
-7.24234e-08
7.90969e-06
-1.95728e-08
7.90522e-06
2.97032e-08
7.9016e-06
3.67727e-08
7.8998e-06
5.20141e-08
7.89696e-06
6.72919e-08
7.89253e-06
6.20309e-08
7.89057e-06
6.84155e-08
7.88863e-06
8.04464e-08
7.88566e-06
8.64157e-08
7.88462e-06
9.45929e-08
7.88575e-06
1.06004e-07
7.88738e-06
1.17167e-07
7.8899e-06
1.25588e-07
7.8938e-06
1.32133e-07
1.36182e-07
7.89898e-06
8.30423e-06
2.12286e-08
8.30629e-06
-9.24088e-08
8.30958e-06
-3.04221e-08
8.29423e-06
-4.35068e-08
8.28868e-06
-6.6871e-08
8.28562e-06
-1.65168e-08
8.28049e-06
3.48366e-08
8.27617e-06
4.10872e-08
8.27447e-06
5.37138e-08
8.27188e-06
6.98816e-08
8.26734e-06
6.65691e-08
8.26515e-06
7.06057e-08
8.26367e-06
8.19328e-08
8.26122e-06
8.88625e-08
8.26031e-06
9.55087e-08
8.26143e-06
1.04876e-07
8.26359e-06
1.1501e-07
8.26655e-06
1.2263e-07
8.27063e-06
1.28049e-07
1.30956e-07
8.27586e-06
8.70147e-06
2.14188e-08
8.70218e-06
-9.31169e-08
8.70678e-06
-3.50193e-08
8.69172e-06
-2.84544e-08
8.68288e-06
-5.80307e-08
8.67955e-06
-1.31775e-08
8.6741e-06
4.0283e-08
8.66894e-06
4.62438e-08
8.66715e-06
5.55075e-08
8.6649e-06
7.21269e-08
8.66036e-06
7.11106e-08
8.65786e-06
7.31077e-08
8.65673e-06
8.30593e-08
8.65493e-06
9.06676e-08
8.65423e-06
9.62068e-08
8.65533e-06
1.03778e-07
8.65786e-06
1.12473e-07
8.66129e-06
1.19208e-07
8.66563e-06
1.23707e-07
1.2566e-07
8.67092e-06
9.1177e-06
2.13343e-08
9.11676e-06
-9.2169e-08
9.12201e-06
-4.02701e-08
9.10763e-06
-1.40749e-08
9.09617e-06
-4.65716e-08
9.09229e-06
-9.302e-09
9.08684e-06
4.57383e-08
9.08086e-06
5.22161e-08
9.0787e-06
5.76747e-08
9.07684e-06
7.39848e-08
9.07245e-06
7.55039e-08
9.06959e-06
7.59605e-08
9.06868e-06
8.39697e-08
9.06758e-06
9.1772e-08
9.06721e-06
9.65724e-08
9.06832e-06
1.02669e-07
9.0711e-06
1.09692e-07
9.07494e-06
1.15367e-07
9.07961e-06
1.19044e-07
1.20241e-07
9.08503e-06
9.5538e-06
2.09966e-08
9.55039e-06
-8.87602e-08
9.55551e-06
-4.53926e-08
9.54264e-06
-1.2023e-09
9.52932e-06
-3.32484e-08
9.52475e-06
-4.74028e-09
9.51954e-06
5.09568e-08
9.51287e-06
5.88834e-08
9.51008e-06
6.04584e-08
9.50855e-06
7.55167e-08
9.50448e-06
7.95796e-08
9.5013e-06
7.91348e-08
9.50044e-06
8.48319e-08
9.50003e-06
9.21834e-08
9.5001e-06
9.64976e-08
9.50133e-06
1.01444e-07
9.50426e-06
1.06763e-07
9.50842e-06
1.11203e-07
9.51342e-06
1.14042e-07
1.14637e-07
9.51903e-06
1.00107e-05
2.04567e-08
1.00045e-05
-8.25379e-08
1.00088e-05
-4.9735e-08
9.99771e-06
9.88321e-09
9.98319e-06
-1.87302e-08
9.9779e-06
5.53759e-10
9.97305e-06
5.58065e-08
9.96588e-06
6.6051e-08
9.96232e-06
6.40211e-08
9.96096e-06
7.68727e-08
9.95734e-06
8.32015e-08
9.95396e-06
8.25188e-08
9.95299e-06
8.5799e-08
9.95317e-06
9.2e-08
9.95378e-06
9.58911e-08
9.95525e-06
9.99708e-08
9.95829e-06
1.03721e-07
9.96268e-06
1.06818e-07
9.96799e-06
1.08734e-07
1.08796e-07
9.97383e-06
1.04893e-05
1.97917e-08
1.04808e-05
-7.40719e-08
1.04834e-05
-5.23347e-08
1.0474e-05
1.92899e-08
1.04589e-05
-3.55382e-09
1.04528e-05
6.64421e-09
1.04483e-05
6.02786e-08
1.04408e-05
7.34991e-08
1.04364e-05
6.84482e-08
1.0435e-05
7.82407e-08
1.0432e-05
8.62948e-08
1.04285e-05
8.59435e-08
1.04274e-05
8.69625e-08
1.0428e-05
9.1408e-08
1.04292e-05
9.46947e-08
1.0431e-05
9.81154e-08
1.04342e-05
1.00533e-07
1.04387e-05
1.02285e-07
1.04443e-05
1.03193e-07
1.02707e-07
1.04504e-05
1.09907e-05
1.90831e-08
1.0982e-05
-6.52971e-08
1.09808e-05
-5.12323e-08
1.09728e-05
2.73459e-08
1.09575e-05
1.17303e-08
1.09504e-05
1.37168e-08
1.09463e-05
6.44369e-08
1.09387e-05
8.10372e-08
1.09334e-05
7.37619e-08
1.09319e-05
7.98075e-08
1.09293e-05
8.88384e-08
1.0926e-05
8.92388e-08
1.09246e-05
8.83342e-08
1.09254e-05
9.06162e-08
1.09272e-05
9.29468e-08
1.09296e-05
9.57486e-08
1.0933e-05
9.71197e-08
1.09376e-05
9.76299e-08
1.09433e-05
9.74911e-08
9.63961e-08
1.09496e-05
1.1516e-05
1.84351e-08
1.15048e-05
-5.40641e-08
1.15024e-05
-4.88564e-08
1.14955e-05
3.42688e-08
1.14804e-05
2.68491e-08
1.14721e-05
2.20189e-08
1.14681e-05
6.84167e-08
1.14606e-05
8.85064e-08
1.14544e-05
7.99449e-08
1.14525e-05
8.17676e-08
1.14505e-05
9.08331e-08
1.14474e-05
9.22656e-08
1.14459e-05
8.98612e-08
1.14468e-05
8.97665e-08
1.14489e-05
9.08268e-08
1.14519e-05
9.27542e-08
1.14556e-05
9.33747e-08
1.14604e-05
9.28274e-08
1.14662e-05
9.16731e-08
8.99111e-08
1.14727e-05
1.20663e-05
1.79352e-08
1.20535e-05
-4.12312e-08
1.20487e-05
-4.40509e-08
1.20431e-05
3.98755e-08
1.20285e-05
4.14228e-08
1.20189e-05
3.16278e-08
1.20148e-05
7.25063e-08
1.20075e-05
9.5769e-08
1.20005e-05
8.69387e-08
1.1998e-05
8.43378e-08
1.19965e-05
9.23236e-08
1.19939e-05
9.48869e-08
1.19923e-05
9.14647e-08
1.19931e-05
8.89278e-08
1.19954e-05
8.85627e-08
1.1999e-05
8.90968e-08
1.20032e-05
8.91945e-08
1.20082e-05
8.78158e-08
1.20141e-05
8.57486e-08
8.32887e-08
1.20208e-05
1.26429e-05
1.76714e-08
1.26292e-05
-2.75785e-08
1.26221e-05
-3.69706e-08
1.26169e-05
4.51149e-08
1.26029e-05
5.53934e-08
1.25922e-05
4.23301e-08
1.25876e-05
7.7071e-08
1.25807e-05
1.02762e-07
1.2573e-05
9.46221e-08
1.25696e-05
8.7737e-08
1.25684e-05
9.34644e-08
1.25664e-05
9.69339e-08
1.25648e-05
9.3055e-08
1.25655e-05
8.81985e-08
1.25679e-05
8.61827e-08
1.2572e-05
8.49552e-08
1.25768e-05
8.44727e-08
1.25821e-05
8.25213e-08
1.25881e-05
7.96804e-08
7.65304e-08
1.25949e-05
1.32469e-05
1.76951e-08
1.3234e-05
-1.46475e-08
1.32239e-05
-2.69204e-08
1.32183e-05
5.07163e-08
1.32048e-05
6.89217e-08
1.31932e-05
5.39104e-08
1.31879e-05
8.24036e-08
1.31811e-05
1.09502e-07
1.31729e-05
1.02871e-07
1.31685e-05
9.20993e-08
1.31674e-05
9.45587e-08
1.31661e-05
9.82671e-08
1.31647e-05
9.45062e-08
1.31652e-05
8.76988e-08
1.31678e-05
8.35234e-08
1.31721e-05
8.06905e-08
1.31775e-05
7.90688e-08
1.31831e-05
7.6954e-08
1.31894e-05
7.33506e-08
6.9594e-08
1.31963e-05
1.38798e-05
1.80311e-08
1.38672e-05
-1.98539e-09
1.38551e-05
-1.48938e-08
1.38488e-05
5.70571e-08
1.38355e-05
8.21879e-08
1.38231e-05
6.6322e-08
1.38169e-05
8.86549e-08
1.38103e-05
1.16068e-07
1.38016e-05
1.11569e-07
1.37962e-05
9.7487e-08
1.37948e-05
9.59719e-08
1.37942e-05
9.89205e-08
1.3793e-05
9.56294e-08
1.37933e-05
8.73933e-08
1.37962e-05
8.0659e-08
1.38004e-05
7.64594e-08
1.38066e-05
7.28983e-08
1.38123e-05
7.12277e-08
1.38191e-05
6.65695e-08
6.23896e-08
1.38263e-05
1.4543e-05
1.86666e-08
1.453e-05
1.10921e-08
1.45171e-05
-2.06812e-09
1.45097e-05
6.45053e-08
1.44966e-05
9.52942e-08
1.44832e-05
7.97117e-08
1.4476e-05
9.58487e-08
1.44694e-05
1.22625e-07
1.44605e-05
1.20541e-07
1.4454e-05
1.03965e-07
1.44519e-05
9.80163e-08
1.44517e-05
9.91391e-08
1.44511e-05
9.62204e-08
1.44514e-05
8.7126e-08
1.44541e-05
7.79515e-08
1.44586e-05
7.19429e-08
1.44651e-05
6.64364e-08
1.44714e-05
6.4919e-08
1.44785e-05
5.94964e-08
5.47069e-08
1.44861e-05
1.5238e-05
1.95688e-08
1.52254e-05
2.3708e-08
1.52112e-05
1.21157e-08
1.52024e-05
7.32895e-08
1.51893e-05
1.08362e-07
1.51749e-05
9.41877e-08
1.51666e-05
1.04092e-07
1.51599e-05
1.29344e-07
1.51508e-05
1.2962e-07
1.51432e-05
1.11557e-07
1.51403e-05
1.0096e-07
1.51401e-05
9.92787e-08
1.51401e-05
9.62202e-08
1.51405e-05
8.67343e-08
1.5143e-05
7.5496e-08
1.51479e-05
6.7045e-08
1.5154e-05
6.03067e-08
1.51617e-05
5.72552e-08
1.51688e-05
5.24155e-08
4.65789e-08
1.51769e-05
1.59661e-05
2.07616e-08
1.59535e-05
3.62982e-08
1.59383e-05
2.73322e-08
1.59286e-05
8.30552e-08
1.59152e-05
1.21699e-07
1.58997e-05
1.09695e-07
1.58902e-05
1.13663e-07
1.58831e-05
1.36346e-07
1.5874e-05
1.38744e-07
1.58654e-05
1.20159e-07
1.58613e-05
1.05085e-07
1.58609e-05
9.97078e-08
1.58613e-05
9.57831e-08
1.5862e-05
8.6057e-08
1.58643e-05
7.31854e-08
1.58692e-05
6.21026e-08
1.58753e-05
5.42017e-08
1.58836e-05
4.8976e-08
1.5892e-05
4.40337e-08
3.88796e-08
1.58997e-05
1.67291e-05
2.22811e-08
1.67158e-05
4.95926e-08
1.67003e-05
4.27764e-08
1.66897e-05
9.37185e-08
1.66759e-05
1.35487e-07
1.66594e-05
1.26212e-07
1.66482e-05
1.24836e-07
1.66407e-05
1.43849e-07
1.66315e-05
1.47931e-07
1.66221e-05
1.29575e-07
1.66166e-05
1.1062e-07
1.66154e-05
1.00872e-07
1.6616e-05
9.51499e-08
1.6617e-05
8.5049e-08
1.66193e-05
7.08942e-08
1.66239e-05
5.7498e-08
1.66305e-05
4.7587e-08
1.6639e-05
4.04974e-08
1.66481e-05
3.49294e-08
3.00945e-08
1.66569e-05
1.75285e-05
2.4145e-08
1.75169e-05
6.12241e-08
1.74992e-05
6.04567e-08
1.74872e-05
1.05682e-07
1.7473e-05
1.49711e-07
1.74555e-05
1.43751e-07
1.74425e-05
1.3781e-07
1.74341e-05
1.522e-07
1.74248e-05
1.57267e-07
1.74147e-05
1.39682e-07
1.74077e-05
1.17623e-07
1.74053e-05
1.03285e-07
1.74058e-05
9.46548e-08
1.74069e-05
8.38919e-08
1.74093e-05
6.85236e-08
1.74137e-05
5.30643e-08
1.74206e-05
4.07077e-08
1.74294e-05
3.17198e-08
1.74392e-05
2.51511e-08
1.9951e-08
1.74493e-05
1.8366e-05
2.64611e-08
1.83542e-05
7.30088e-08
1.83361e-05
7.86119e-08
1.83229e-05
1.18902e-07
1.83083e-05
1.64325e-07
1.82897e-05
1.62281e-07
1.82748e-05
1.52784e-07
1.82652e-05
1.618e-07
1.82555e-05
1.66918e-07
1.82447e-05
1.50467e-07
1.82362e-05
1.26122e-07
1.82322e-05
1.07292e-07
1.8232e-05
9.48676e-08
1.8233e-05
8.28704e-08
1.82355e-05
6.60665e-08
1.82399e-05
4.86235e-08
1.82469e-05
3.37147e-08
1.82561e-05
2.25227e-08
1.82668e-05
1.44871e-08
8.63391e-09
1.82781e-05
1.92435e-05
2.93203e-08
1.92324e-05
8.4105e-08
1.9213e-05
9.80461e-08
1.91984e-05
1.33552e-07
1.91834e-05
1.79278e-07
1.9164e-05
1.81702e-07
1.91469e-05
1.69904e-07
1.91356e-05
1.73099e-07
1.91253e-05
1.77175e-07
1.91138e-05
1.61991e-07
1.91037e-05
1.36176e-07
1.90979e-05
1.13147e-07