/*--------------------------------*- C++ -*----------------------------------*\
| =========                 |                                                 |
| \\      /  F ield         | OpenFOAM: The Open Source CFD Toolbox           |
|  \\    /   O peration     | Version:  v2012                                 |
|   \\  /    A nd           | Website:  www.openfoam.com                      |
|    \\/     M anipulation  |                                                 |
\*---------------------------------------------------------------------------*/
FoamFile
{
    version     2.0;
    format      ascii;
    class       surfaceScalarField;
    location    "3.15";
    object      phi;
}
// * * * * * * * * * * * * * * * * * * * * * * * * * * * * * * * * * * * * * //

dimensions      [0 3 -1 0 0 0 0];
oriented        oriented;


internalField   nonuniform List<scalar> 
34900
(
1.17239e-06
8.1564e-08
1.16611e-06
-1.90962e-07
1.17006e-06
6.16988e-08
1.16684e-06
-2.26945e-07
1.17663e-06
3.87642e-07
1.16411e-06
-2.42113e-07
1.17465e-06
4.48385e-07
1.15583e-06
-1.64842e-07
1.1635e-06
2.13214e-07
1.14762e-06
-1.53046e-08
1.15383e-06
5.79151e-08
1.14067e-06
4.71701e-08
1.14709e-06
2.1676e-08
1.13487e-06
2.71461e-08
1.14146e-06
3.86747e-08
1.12871e-06
1.70198e-08
1.13532e-06
4.74411e-08
1.12118e-06
1.06936e-08
1.12334e-06
7.23906e-08
1.67333e-08
1.08564e-06
1.22677e-06
7.90578e-08
1.2214e-06
-1.85597e-07
1.22406e-06
5.90428e-08
1.22236e-06
-2.25245e-07
1.22916e-06
3.80841e-07
1.21871e-06
-2.31667e-07
1.22488e-06
4.42218e-07
1.21056e-06
-1.50521e-07
1.21276e-06
2.11015e-07
1.20396e-06
-6.50234e-09
1.20387e-06
5.80032e-08
1.19968e-06
5.13586e-08
1.19772e-06
2.36375e-08
1.19675e-06
2.81131e-08
1.19096e-06
4.44632e-08
1.19421e-06
1.37775e-08
1.18181e-06
5.98393e-08
1.19045e-06
2.05394e-09
1.16507e-06
9.77681e-08
1.27476e-08
1.16906e-06
1.28272e-06
7.91163e-08
1.28017e-06
-1.83038e-07
1.28018e-06
5.90325e-08
1.28053e-06
-2.25596e-07
1.28395e-06
3.77422e-07
1.27667e-06
-2.24389e-07
1.27838e-06
4.40505e-07
1.27014e-06
-1.42284e-07
1.26599e-06
2.15173e-07
1.2651e-06
-5.61471e-09
1.25826e-06
6.48456e-08
1.26193e-06
4.76881e-08
1.25341e-06
3.21561e-08
1.25892e-06
2.25971e-08
1.24844e-06
5.49483e-08
1.25498e-06
7.2348e-09
1.24304e-06
7.17836e-08
1.24723e-06
-2.14375e-09
1.23443e-06
1.10575e-07
2.59625e-08
1.22121e-06
1.34112e-06
8.20945e-08
1.34222e-06
-1.84134e-07
1.33909e-06
6.21674e-08
1.3416e-06
-2.28114e-07
1.34243e-06
3.76598e-07
1.33861e-06
-2.20568e-07
1.33766e-06
4.41449e-07
1.33495e-06
-1.39571e-07
1.32701e-06
2.23119e-07
1.33039e-06
-9.00074e-09
1.32121e-06
7.40267e-08
1.32627e-06
4.26264e-08
1.3179e-06
4.05279e-08
1.3219e-06
1.85968e-08
1.31473e-06
6.21195e-08
1.31738e-06
4.58775e-09
1.31132e-06
7.78428e-08
1.30957e-06
-3.97234e-10
1.30398e-06
1.16167e-07
4.31383e-08
1.2868e-06
1.40309e-06
8.73536e-08
1.40712e-06
-1.88161e-07
1.40169e-06
6.75954e-08
1.40512e-06
-2.31543e-07
1.40529e-06
3.76427e-07
1.40375e-06
-2.19025e-07
1.40318e-06
4.42022e-07
1.40332e-06
-1.39714e-07
1.39579e-06
2.30648e-07
1.39917e-06
-1.23754e-08
1.39169e-06
8.15025e-08
1.39461e-06
3.97033e-08
1.38889e-06
4.6253e-08
1.39006e-06
1.74211e-08
1.38591e-06
6.62699e-08
1.38611e-06
4.39067e-09
1.38249e-06
8.14641e-08
1.37857e-06
3.52178e-09
1.37491e-06
1.19829e-07
6.04147e-08
1.35763e-06
1.46966e-06
9.33715e-08
1.47478e-06
-1.93282e-07
1.4687e-06
7.36798e-08
1.47125e-06
-2.34093e-07
1.47244e-06
3.75232e-07
1.47163e-06
-2.18212e-07
1.47343e-06
4.40217e-07
1.47416e-06
-1.40441e-07
1.46943e-06
2.35378e-07
1.47107e-06
-1.40193e-08
1.46621e-06
8.63645e-08
1.46713e-06
3.87856e-08
1.46326e-06
5.01267e-08
1.46302e-06
1.76586e-08
1.46009e-06
6.91949e-08
1.45932e-06
5.16263e-09
1.45665e-06
8.41369e-08
1.45135e-06
8.81746e-09
1.44913e-06
1.22048e-07
7.78421e-08
1.43171e-06
1.54113e-06
9.84564e-08
1.54555e-06
-1.97698e-07
1.54024e-06
7.89849e-08
1.5407e-06
-2.34548e-07
1.54341e-06
3.72519e-07
1.54231e-06
-2.17114e-07
1.54673e-06
4.35801e-07
1.5471e-06
-1.40815e-07
1.54538e-06
2.37098e-07
1.54556e-06
-1.41939e-08
1.54269e-06
8.92274e-08
1.54265e-06
3.8825e-08
1.53977e-06
5.30078e-08
1.53904e-06
1.839e-08
1.53678e-06
7.14533e-08
1.53532e-06
6.62314e-09
1.53358e-06
8.58841e-08
1.52688e-06
1.55091e-08
1.52608e-06
1.22849e-07
9.50766e-08
1.50885e-06
1.61702e-06
1.01569e-07
1.6198e-06
-2.00482e-07
1.61592e-06
8.28677e-08
1.61416e-06
-2.32794e-07
1.61794e-06
3.68743e-07
1.6162e-06
-2.15373e-07
1.62246e-06
4.29537e-07
1.62234e-06
-1.40693e-07
1.62299e-06
2.36452e-07
1.62238e-06
-1.35874e-08
1.62097e-06
9.06411e-08
1.6206e-06
3.91943e-08
1.6185e-06
5.51042e-08
1.61754e-06
1.9352e-08
1.61601e-06
7.29832e-08
1.61383e-06
8.80376e-09
1.61313e-06
8.65838e-08
1.60515e-06
2.34856e-08
1.6055e-06
1.22502e-07
1.1152e-07
1.58906e-06
1.69651e-06
1.02631e-07
1.69768e-06
-2.01655e-07
1.69517e-06
8.53857e-08
1.69193e-06
-2.29556e-07
1.69615e-06
3.64518e-07
1.69376e-06
-2.12984e-07
1.70108e-06
4.22219e-07
1.70044e-06
-1.40052e-07
1.70286e-06
2.34034e-07
1.70185e-06
-1.25821e-08
1.70168e-06
9.08118e-08
1.70117e-06
3.97053e-08
1.69993e-06
5.63467e-08
1.69874e-06
2.05401e-08
1.69809e-06
7.36389e-08
1.69514e-06
1.17521e-08
1.69551e-06
8.62138e-08
1.68647e-06
3.25205e-08
1.68758e-06
1.21398e-07
1.26607e-07
1.67249e-06
1.77913e-06
1.0222e-07
1.7792e-06
-2.01722e-07
1.7777e-06
8.68852e-08
1.77393e-06
-2.25785e-07
1.77832e-06
3.60125e-07
1.77538e-06
-2.10043e-07
1.78331e-06
4.1429e-07
1.78201e-06
-1.38755e-07
1.78585e-06
2.30199e-07
1.78448e-06
-1.12157e-08
1.7855e-06
8.97931e-08
1.78481e-06
4.04003e-08
1.78451e-06
5.66442e-08
1.78301e-06
2.20427e-08
1.78332e-06
7.33273e-08
1.77957e-06
1.54974e-08
1.78091e-06
8.48751e-08
1.77113e-06
4.22964e-08
1.77252e-06
1.20008e-07
1.3985e-07
1.75928e-06
1.86493e-06
1.01039e-07
1.86441e-06
-2.01202e-07
1.86359e-06
8.77004e-08
1.85999e-06
-2.22186e-07
1.86461e-06
3.55514e-07
1.86121e-06
-2.06647e-07
1.86962e-06
4.05876e-07
1.86749e-06
-1.36616e-07
1.87255e-06
2.25138e-07
1.87068e-06
-9.34482e-09
1.87285e-06
8.76196e-08
1.87183e-06
4.14234e-08
1.87252e-06
5.59523e-08
1.87058e-06
2.39776e-08
1.87187e-06
7.20407e-08
1.86736e-06
2.00122e-08
1.86942e-06
8.28061e-08
1.85931e-06
5.24115e-08
1.86047e-06
1.18849e-07
1.50884e-07
1.84943e-06
1.9543e-06
9.9582e-08
1.9535e-06
-2.00409e-07
1.95314e-06
8.80648e-08
1.95001e-06
-2.19059e-07
1.95502e-06
3.50505e-07
1.95124e-06
-2.02862e-07
1.96019e-06
3.96925e-07
1.95707e-06
-1.33503e-07
1.96326e-06
2.18954e-07
1.9607e-06
-6.78746e-09
1.96398e-06
8.43377e-08
1.96246e-06
4.29413e-08
1.96414e-06
5.42784e-08
1.96168e-06
2.64399e-08
1.96385e-06
6.98687e-08
1.95869e-06
2.51743e-08
1.96112e-06
8.03679e-08
1.95112e-06
6.24153e-08
1.95159e-06
1.18383e-07
1.59542e-07
1.94293e-06
2.0477e-06
9.80758e-08
2.04676e-06
-1.99472e-07
2.0467e-06
8.81244e-08
2.04402e-06
-2.16383e-07
2.04959e-06
3.44939e-07
2.04543e-06
-1.98708e-07
2.05503e-06
3.87326e-07
2.05089e-06
-1.29363e-07
2.05815e-06
2.117e-07
2.05475e-06
-3.39566e-09
2.0591e-06
7.99921e-08
2.05695e-06
4.50919e-08
2.05955e-06
5.16741e-08
2.05654e-06
2.94579e-08
2.0594e-06
6.70019e-08
2.05383e-06
3.07501e-08
2.0562e-06
7.79979e-08
2.04674e-06
7.18756e-08
2.0462e-06
1.18919e-07
1.65898e-07
2.03984e-06
2.14551e-06
9.65704e-08
2.14446e-06
-1.98422e-07
2.14462e-06
8.79608e-08
2.14221e-06
-2.13976e-07
2.14843e-06
3.38724e-07
2.14387e-06
-1.94152e-07
2.15423e-06
3.76966e-07
2.14907e-06
-1.24196e-07
2.15738e-06
2.03386e-07
2.15306e-06
9.25868e-10
2.15844e-06
7.46156e-08
2.15558e-06
4.79522e-08
2.15902e-06
4.8234e-08
2.15551e-06
3.29602e-08
2.15879e-06
6.37228e-08
2.15313e-06
3.64181e-08
2.15498e-06
7.61408e-08
2.14642e-06
8.04426e-08
2.14476e-06
1.20572e-07
1.70242e-07
2.14042e-06
2.24802e-06
9.50429e-08
2.24684e-06
-1.97251e-07
2.2472e-06
8.76039e-08
2.24485e-06
-2.11625e-07
2.25177e-06
3.31805e-07
2.24675e-06
-1.8913e-07
2.25797e-06
3.65747e-07
2.25179e-06
-1.18017e-07
2.26118e-06
1.9399e-07
2.25588e-06
6.22638e-09
2.26226e-06
6.82364e-08
2.25869e-06
5.152e-08
2.26282e-06
4.41079e-08
2.25902e-06
3.67605e-08
2.26236e-06
6.03871e-08
2.25695e-06
4.18209e-08
2.25792e-06
7.5174e-08
2.25046e-06
8.78983e-08
2.24777e-06
1.2327e-07
1.73e-07
2.24501e-06
2.35546e-06
9.34559e-08
2.35414e-06
-1.95933e-07
2.3547e-06
8.70438e-08
2.35223e-06
-2.09145e-07
2.35989e-06
3.2414e-07
2.35432e-06
-1.83555e-07
2.36648e-06
3.53581e-07
2.35929e-06
-1.10824e-07
2.3698e-06
1.83476e-07
2.36351e-06
1.25155e-08
2.37085e-06
6.09021e-08
2.36666e-06
5.57029e-08
2.37126e-06
3.95146e-08
2.36745e-06
4.05665e-08
2.37045e-06
5.73893e-08
2.36564e-06
4.66309e-08
2.36548e-06
7.53323e-08
2.35918e-06
9.42044e-08
2.35567e-06
1.26773e-07
1.74647e-07
2.35403e-06
2.46807e-06
9.17765e-08
2.46657e-06
-1.94431e-07
2.46738e-06
8.62385e-08
2.46463e-06
-2.06395e-07
2.47309e-06
3.15675e-07
2.46687e-06
-1.77334e-07
2.48007e-06
3.40387e-07
2.47184e-06
-1.02597e-07
2.4835e-06
1.71812e-07
2.47626e-06
1.97595e-08
2.48445e-06
5.27097e-08
2.47985e-06
6.03079e-08
2.48461e-06
3.47561e-08
2.48117e-06
4.40046e-08
2.48344e-06
5.51162e-08
2.47945e-06
5.06176e-08
2.47814e-06
7.66478e-08
2.47282e-06
9.95266e-08
2.46887e-06
1.30724e-07
1.7563e-07
2.46788e-06
2.58609e-06
8.99779e-08
2.58436e-06
-1.92696e-07
2.58548e-06
8.51201e-08
2.58234e-06
-2.03257e-07
2.59167e-06
3.06338e-07
2.58471e-06
-1.70374e-07
2.59901e-06
3.26089e-07
2.58973e-06
-9.3316e-08
2.60255e-06
1.58997e-07
2.59444e-06
2.78671e-08
2.60332e-06
4.38311e-08
2.59858e-06
6.50402e-08
2.60313e-06
3.02074e-08
2.60046e-06
4.6673e-08
2.60169e-06
5.38861e-08
2.59862e-06
5.36953e-08
2.59631e-06
7.89513e-08
2.59166e-06
1.04176e-07
2.58766e-06
1.34731e-07
1.76318e-07
2.58697e-06
2.70977e-06
8.80365e-08
2.70774e-06
-1.90661e-07
2.70926e-06
8.35967e-08
2.70563e-06
-1.99624e-07
2.71592e-06
2.96042e-07
2.70813e-06
-1.62581e-07
2.72359e-06
3.10624e-07
2.71326e-06
-8.29771e-08
2.72717e-06
1.45081e-07
2.71837e-06
3.66713e-08
2.72767e-06
3.45309e-08
2.72319e-06
6.95129e-08
2.72712e-06
2.62787e-08
2.72558e-06
4.82184e-08
2.72559e-06
5.3876e-08
2.72332e-06
5.59649e-08
2.72035e-06
8.19179e-08
2.71603e-06
1.08495e-07
2.71228e-06
1.38487e-07
1.76943e-07
2.71165e-06
2.83938e-06
8.59293e-08
2.83696e-06
-1.88246e-07
2.839e-06
8.15554e-08
2.83477e-06
-1.95392e-07
2.84612e-06
2.84689e-07
2.83742e-06
-1.53878e-07
2.85409e-06
2.93955e-07
2.84273e-06
-7.16205e-08
2.85762e-06
1.3019e-07
2.84838e-06
4.59096e-08
2.85774e-06
2.51718e-08
2.85399e-06
7.32711e-08
2.8569e-06
2.33673e-08
2.85671e-06
4.84013e-08
2.85552e-06
5.50657e-08
2.85377e-06
5.77214e-08
2.85053e-06
8.51572e-08
2.84629e-06
1.12733e-07
2.84293e-06
1.41847e-07
1.77587e-07
2.84229e-06
2.97519e-06
8.36329e-08
2.9723e-06
-1.85353e-07
2.97499e-06
7.88654e-08
2.97006e-06
-1.90459e-07
2.98256e-06
2.72184e-07
2.9729e-06
-1.44213e-07
2.99076e-06
2.76093e-07
2.97849e-06
-5.93542e-08
2.99414e-06
1.14547e-07
2.98483e-06
5.52131e-08
2.99381e-06
1.61963e-08
2.99123e-06
7.58485e-08
2.99282e-06
2.17776e-08
2.99405e-06
4.71733e-08
2.99192e-06
5.71951e-08
2.99023e-06
5.94106e-08
2.98705e-06
8.8332e-08
2.98279e-06
1.16994e-07
2.97981e-06
1.44827e-07
1.78213e-07
2.97919e-06
3.11751e-06
8.11245e-08
3.11404e-06
-1.81879e-07
3.11752e-06
7.53843e-08
3.11179e-06
-1.84733e-07
3.12553e-06
2.58453e-07
3.11489e-06
-1.33577e-07
3.13387e-06
2.57112e-07
3.12089e-06
-4.63745e-08
3.13696e-06
9.84792e-08
3.12805e-06
6.41174e-08
3.13615e-06
8.0988e-09
3.13519e-06
7.68097e-08
3.13529e-06
2.1681e-08
3.13778e-06
4.46827e-08
3.13517e-06
5.98016e-08
3.13308e-06
6.15065e-08
3.13014e-06
9.12679e-08
3.12581e-06
1.21329e-07
3.12318e-06
1.4745e-07
1.7877e-07
3.12263e-06
3.26665e-06
7.83829e-08
3.26248e-06
-1.77711e-07
3.2669e-06
7.09691e-08
3.2603e-06
-1.78138e-07
3.2753e-06
2.43454e-07
3.26375e-06
-1.22026e-07
3.28369e-06
2.37179e-07
3.2703e-06
-3.29861e-08
3.28635e-06
8.2422e-08
3.27839e-06
7.20769e-08
3.2851e-06
1.39071e-09
3.28612e-06
7.57952e-08
3.28469e-06
2.31087e-08
3.28818e-06
4.11903e-08
3.28565e-06
6.23367e-08
3.28288e-06
6.42743e-08
3.28004e-06
9.41084e-08
3.27533e-06
1.26035e-07
3.27342e-06
1.49358e-07
1.79477e-07
3.27272e-06
3.42292e-06
7.53901e-08
3.41796e-06
-1.72745e-07
3.42344e-06
6.54909e-08
3.41594e-06
-1.7064e-07
3.43218e-06
2.2721e-07
3.41987e-06
-1.09709e-07
3.44047e-06
2.16576e-07
3.4271e-06
-1.96214e-08
3.4426e-06
6.69259e-08
3.43619e-06
7.8482e-08
3.44103e-06
-3.44088e-09
3.44424e-06
7.25806e-08
3.4414e-06
2.59492e-08
3.4456e-06
3.69869e-08
3.44371e-06
6.42282e-08
3.44083e-06
6.71524e-08
3.43749e-06
9.74549e-08
3.4311e-06
1.32426e-07
3.42966e-06
1.50793e-07
1.79939e-07
3.4292e-06
3.58667e-06
7.21333e-08
3.58081e-06
-1.66885e-07
3.58745e-06
5.88502e-08
3.57907e-06
-1.62258e-07
3.59646e-06
2.09819e-07
3.58363e-06
-9.68763e-08
3.60452e-06
1.95684e-07
3.59167e-06
-6.76977e-09
3.60609e-06
5.25005e-08
3.60166e-06
8.29116e-08
3.60445e-06
-6.22727e-09
3.60969e-06
6.73432e-08
3.60592e-06
2.97147e-08
3.61032e-06
3.25833e-08
3.60984e-06
6.47116e-08
3.60914e-06
6.78485e-08
3.61124e-06
9.53558e-08
3.60645e-06
1.3722e-07
3.58895e-06
1.68293e-07
1.76406e-07
3.59248e-06
3.75823e-06
6.86087e-08
3.75141e-06
-1.60065e-07
3.75926e-06
5.10013e-08
3.75009e-06
-1.53091e-07
3.76844e-06
1.9147e-07
3.75544e-06
-8.38789e-08
3.77617e-06
1.74961e-07
3.76432e-06
5.07211e-09
3.77728e-06
3.95495e-08
3.77494e-06
8.52455e-08
3.77599e-06
-7.27229e-09
3.78253e-06
6.07969e-08
3.7789e-06
3.33505e-08
3.78278e-06
2.87053e-08
3.78485e-06
6.26353e-08
3.78671e-06
6.59857e-08
3.79294e-06
8.91259e-08
3.80197e-06
1.28193e-07
3.81397e-06
1.56299e-07
1.99417e-07
3.79096e-06
3.93797e-06
6.48251e-08
3.93017e-06
-1.52263e-07
3.93918e-06
4.19905e-08
3.92945e-06
-1.43362e-07
3.94842e-06
1.72496e-07
3.93577e-06
-7.12276e-08
3.95575e-06
1.54989e-07
3.94546e-06
1.5361e-08
3.95656e-06
2.8442e-08
3.95638e-06
8.54264e-08
3.95592e-06
-6.8118e-09
3.96335e-06
5.3366e-08
3.96044e-06
3.62686e-08
3.9641e-06
2.50424e-08
3.96517e-06
6.15649e-08
3.95503e-06
7.61225e-08
3.94802e-06
9.61411e-08
3.94265e-06
1.33558e-07
3.93301e-06
1.65943e-07
1.91973e-07
3.94045e-06
4.12627e-06
6.0805e-08
4.11752e-06
-1.43516e-07
4.12753e-06
3.198e-08
4.11759e-06
-1.33415e-07
4.13676e-06
1.53328e-07
4.12504e-06
-5.95075e-08
4.14369e-06
1.36333e-07
4.13537e-06
2.3685e-08
4.14446e-06
1.93496e-08
4.14629e-06
8.35961e-08
4.14458e-06
-5.10066e-09
4.15256e-06
4.53857e-08
4.14849e-06
4.03327e-08
4.14564e-06
2.79019e-08
4.14067e-06
6.653e-08
4.13476e-06
8.2034e-08
4.13016e-06
1.00744e-07
4.12673e-06
1.36987e-07
4.12347e-06
1.69198e-07
1.88584e-07
4.12686e-06
4.32352e-06
5.65898e-08
4.31394e-06
-1.33936e-07
4.32465e-06
2.12637e-08
4.31496e-06
-1.23717e-07
4.33384e-06
1.34447e-07
4.32359e-06
-4.92566e-08
4.34057e-06
1.19348e-07
4.33426e-06
2.99988e-08
4.34158e-06
1.20242e-08
4.34482e-06
8.03568e-08
4.34188e-06
-2.15732e-09
4.34695e-06
4.03177e-08
4.33947e-06
4.78097e-08
4.33472e-06
3.26507e-08
4.33296e-06
6.82855e-08
4.32694e-06
8.80549e-08
4.32276e-06
1.04927e-07
4.32108e-06
1.38666e-07
4.3209e-06
1.69379e-07
1.86489e-07
4.323e-06
4.53012e-06
5.22399e-08
4.51991e-06
-1.23722e-07
4.53087e-06
1.02991e-08
4.52202e-06
-1.1486e-07
4.54011e-06
1.16355e-07
4.53178e-06
-4.09229e-08
4.54698e-06
1.0414e-07
4.54238e-06
3.45984e-08
4.54836e-06
6.04406e-09
4.55159e-06
7.71301e-08
4.54568e-06
3.75505e-09
4.54779e-06
3.82042e-08
4.54154e-06
5.40602e-08
4.53585e-06
3.83455e-08
4.53474e-06
6.93925e-08
4.52949e-06
9.33072e-08
4.52535e-06
1.09062e-07
4.52469e-06
1.39333e-07
4.52653e-06
1.67533e-07
1.85075e-07
4.52795e-06
4.74652e-06
4.78351e-08
4.73596e-06
-1.13166e-07
4.74657e-06
-3.10674e-10
4.73921e-06
-1.07494e-07
4.7561e-06
9.94638e-08
4.74989e-06
-3.47183e-08
4.76354e-06
9.04898e-08
4.76006e-06
3.80873e-08
4.76463e-06
1.46608e-09
4.76587e-06
7.58892e-08
4.75753e-06
1.21016e-08
4.75906e-06
3.66733e-08
4.75388e-06
5.92353e-08
4.74755e-06
4.4677e-08
4.74644e-06
7.05006e-08
4.74221e-06
9.75379e-08
4.73816e-06
1.13112e-07
4.73822e-06
1.3928e-07
4.74066e-06
1.65088e-07
1.83445e-07
4.74229e-06
4.97316e-06
4.34755e-08
4.96265e-06
-1.02654e-07
4.97218e-06
-9.84605e-09
4.96693e-06
-1.02242e-07
4.9824e-06
8.39919e-08
4.97824e-06
-3.05578e-08
4.99077e-06
7.79571e-08
4.98732e-06
4.15377e-08
4.98919e-06
-4.05916e-10
4.98909e-06
7.59932e-08
4.97982e-06
2.13745e-08
4.98067e-06
3.58171e-08
4.97679e-06
6.31229e-08
4.97003e-06
5.14367e-08
4.96858e-06
7.19517e-08
4.96537e-06
1.00747e-07
4.96162e-06
1.16856e-07
4.96217e-06
1.38728e-07
4.96439e-06
1.62876e-07
1.81063e-07
4.96677e-06
5.21052e-06
3.92707e-08
5.20049e-06
-9.26242e-08
5.20823e-06
-1.75854e-08
5.20551e-06
-9.95177e-08
5.21969e-06
6.98097e-08
5.21718e-06
-2.80532e-08
5.22885e-06
6.62904e-08
5.22411e-06
4.62791e-08
5.22233e-06
1.37098e-09
5.22276e-06
7.55635e-08
5.21323e-06
3.09035e-08
5.21324e-06
3.58096e-08
5.21053e-06
6.58335e-08
5.20368e-06
5.82893e-08
5.20167e-06
7.39612e-08
5.19934e-06
1.03073e-07
5.19626e-06
1.19935e-07
5.19684e-06
1.38151e-07
5.19903e-06
1.60689e-07
1.78047e-07
5.20204e-06
5.45912e-06
3.53358e-08
5.45005e-06
-8.35508e-08
5.4554e-06
-2.2932e-08
5.45519e-06
-9.9306e-08
5.46857e-06
5.64265e-08
5.46697e-06
-2.64564e-08
5.4774e-06
5.58573e-08
5.47035e-06
5.33358e-08
5.46619e-06
5.53217e-09
5.46757e-06
7.41822e-08
5.45836e-06
4.0113e-08
5.45726e-06
3.69058e-08
5.45551e-06
6.75821e-08
5.44894e-06
6.48611e-08
5.4463e-06
7.66028e-08
5.44465e-06
1.04721e-07
5.44248e-06
1.22107e-07
5.44281e-06
1.37823e-07
5.44518e-06
1.58321e-07
1.74517e-07
5.44871e-06
5.71951e-06
3.17807e-08
5.71188e-06
-7.59129e-08
5.71448e-06
-2.55349e-08
5.71617e-06
-1.00997e-07
5.72926e-06
4.33326e-08
5.7269e-06
-2.40921e-08
5.73428e-06
4.84803e-08
5.72747e-06
6.01437e-08
5.72196e-06
1.10373e-08
5.72418e-06
7.19652e-08
5.71564e-06
4.86513e-08
5.71332e-06
3.92273e-08
5.71222e-06
6.86797e-08
5.70625e-06
7.08349e-08
5.70308e-06
7.97755e-08
5.7019e-06
1.05895e-07
5.70063e-06
1.2338e-07
5.70079e-06
1.37668e-07
5.70334e-06
1.55765e-07
1.70562e-07
5.7073e-06
5.99228e-06
2.86895e-08
5.98652e-06
-7.01474e-08
5.98631e-06
-2.53237e-08
5.98866e-06
-1.03349e-07
6.00115e-06
3.08419e-08
5.99633e-06
-1.92739e-08
6.00202e-06
4.27904e-08
5.99681e-06
6.53519e-08
5.99056e-06
1.72941e-08
5.99308e-06
6.94446e-08
5.98557e-06
5.61619e-08
5.98204e-06
4.27563e-08
5.98125e-06
6.94675e-08
5.97606e-06
7.60275e-08
5.97258e-06
8.32549e-08
5.97173e-06
1.06738e-07
5.97118e-06
1.23934e-07
5.97139e-06
1.37462e-07
5.97408e-06
1.53066e-07
1.6628e-07
5.97837e-06
6.27805e-06
2.61253e-08
6.27449e-06
-6.65838e-08
6.27173e-06
-2.25692e-08
6.273e-06
-1.04616e-07
6.28429e-06
1.95506e-08
6.27836e-06
-1.33455e-08
6.28308e-06
3.80695e-08
6.27936e-06
6.90765e-08
6.27248e-06
2.41767e-08
6.27485e-06
6.70727e-08
6.26859e-06
6.24236e-08
6.26405e-06
4.7294e-08
6.26325e-06
7.02672e-08
6.25888e-06
8.03977e-08
6.25534e-06
8.67914e-08
6.25478e-06
1.07301e-07
6.25473e-06
1.23986e-07
6.25519e-06
1.37002e-07
6.258e-06
1.50251e-07
1.61762e-07
6.26252e-06
6.57747e-06
2.41228e-08
6.57624e-06
-6.53544e-08
6.5715e-06
-1.78227e-08
6.57031e-06
-1.03433e-07
6.58098e-06
8.8794e-09
6.57464e-06
-7.0047e-09
6.57809e-06
3.46195e-08
6.57567e-06
7.14947e-08
6.56833e-06
3.15221e-08
6.57014e-06
6.52628e-08
6.5652e-06
6.73625e-08
6.56e-06
5.24964e-08
6.55892e-06
7.13456e-08
6.55533e-06
8.39887e-08
6.55193e-06
9.01942e-08
6.55164e-06
1.07584e-07
6.55196e-06
1.23665e-07
6.55278e-06
1.36182e-07
6.55571e-06
1.4733e-07
1.57073e-07
6.56039e-06
6.89123e-06
2.26846e-08
6.89221e-06
-6.63344e-08
6.88629e-06
-1.19026e-08
6.88227e-06
-9.94145e-08
6.89227e-06
-1.12484e-09
6.88559e-06
-3.20471e-10
6.88752e-06
3.26907e-08
6.88632e-06
7.26929e-08
6.87875e-06
3.90916e-08
6.87966e-06
6.43498e-08
6.87596e-06
7.1065e-08
6.8705e-06
5.79595e-08
6.86899e-06
7.28581e-08
6.86607e-06
8.69084e-08
6.86293e-06
9.33355e-08
6.86292e-06
1.0759e-07
6.86358e-06
1.23001e-07
6.86481e-06
1.34954e-07
6.86784e-06
1.443e-07
1.52265e-07
6.87265e-06
7.22004e-06
2.17803e-08
7.22286e-06
-6.91495e-08
7.21685e-06
-5.89485e-09
7.20998e-06
-9.25452e-08
7.21883e-06
-9.98008e-09
7.21184e-06
6.67489e-09
7.21199e-06
3.25439e-08
7.21187e-06
7.28114e-08
7.2044e-06
4.6554e-08
7.20423e-06
6.45257e-08
7.20148e-06
7.38181e-08
7.19616e-06
6.32761e-08
7.1942e-06
7.48186e-08
7.19179e-06
8.93146e-08
7.18904e-06
9.60918e-08
7.18924e-06
1.07384e-07
7.19028e-06
1.21958e-07
7.19195e-06
1.33291e-07
7.1951e-06
1.41144e-07
1.47387e-07
7.19998e-06
7.56465e-06
2.13571e-08
7.56885e-06
-7.33468e-08
7.56375e-06
-7.95213e-10
7.55426e-06
-8.30598e-08
7.56138e-06
-1.70993e-08
7.5541e-06
1.39506e-08
7.55223e-06
3.44197e-08
7.55292e-06
7.21188e-08
7.54599e-06
5.34885e-08
7.54462e-06
6.58956e-08
7.54246e-06
7.59731e-08
7.53759e-06
6.81498e-08
7.5353e-06
7.71028e-08
7.53325e-06
9.1368e-08
7.53099e-06
9.83499e-08
7.53129e-06
1.07082e-07
7.53277e-06
1.20488e-07
7.53489e-06
1.31164e-07
7.53821e-06
1.37826e-07
1.42472e-07
7.54313e-06
7.92582e-06
2.13505e-08
7.93081e-06
-7.83344e-08
7.92751e-06
2.49985e-09
7.91592e-06
-7.14715e-08
7.92057e-06
-2.17463e-08
7.9131e-06
2.14148e-08
7.90909e-06
3.84322e-08
7.91019e-06
7.10204e-08
7.90415e-06
5.95283e-08
7.90169e-06
6.83579e-08
7.89972e-06
7.79423e-08
7.89544e-06
7.24273e-08
7.89304e-06
7.9507e-08
7.89124e-06
9.31623e-08
7.88953e-06
1.00068e-07
7.88985e-06
1.06761e-07
7.89174e-06
1.18594e-07
7.89436e-06
1.2854e-07
7.8979e-06
1.34287e-07
1.3753e-07
7.90284e-06
8.30433e-06
2.16968e-08
8.30948e-06
-8.34773e-08
8.30883e-06
3.15122e-09
8.2953e-06
-5.79468e-08
8.29704e-06
-2.3488e-08
8.28956e-06
2.88969e-08
8.28349e-06
4.45058e-08
8.28447e-06
7.00412e-08
8.27956e-06
6.44399e-08
8.27628e-06
7.16378e-08
8.27413e-06
8.00879e-08
8.27043e-06
7.61295e-08
8.26813e-06
8.18093e-08
8.26659e-06
9.46938e-08
8.26539e-06
1.01273e-07
8.26573e-06
1.06417e-07
8.26798e-06
1.1635e-07
8.27111e-06
1.25402e-07
8.27494e-06
1.30457e-07
1.32543e-07
8.27993e-06
8.70102e-06
2.23398e-08
8.70626e-06
-8.87202e-08
8.70712e-06
2.28987e-09
8.69229e-06
-4.31167e-08
8.69127e-06
-2.24696e-08
8.68422e-06
3.59512e-08
8.67638e-06
5.23417e-08
8.67663e-06
6.97997e-08
8.6729e-06
6.81642e-08
8.66918e-06
7.53553e-08
8.66662e-06
8.26487e-08
8.66335e-06
7.93992e-08
8.66131e-06
8.38523e-08
8.66012e-06
9.58848e-08
8.6594e-06
1.01994e-07
8.6598e-06
1.06019e-07
8.6623e-06
1.13852e-07
8.66593e-06
1.21772e-07
8.67012e-06
1.26263e-07
1.27471e-07
8.67519e-06
9.11672e-06
2.3234e-08
9.12194e-06
-9.3938e-08
9.12319e-06
1.03833e-09
9.10644e-06
-2.63637e-08
9.10379e-06
-1.98165e-08
9.09783e-06
4.19078e-08
9.08874e-06
6.14296e-08
9.08764e-06
7.09027e-08
9.08494e-06
7.08656e-08
9.08121e-06
7.90866e-08
9.07816e-06
8.56952e-08
9.07512e-06
8.24399e-08
9.07339e-06
8.55801e-08
9.07266e-06
9.66226e-08
9.0724e-06
1.02252e-07
9.07291e-06
1.05504e-07
9.07558e-06
1.11184e-07
9.07964e-06
1.17714e-07
9.08425e-06
1.21653e-07
1.22249e-07
9.08947e-06
9.55235e-06
2.43426e-08
9.55484e-06
-9.64274e-08
9.55482e-06
1.05825e-09
9.53866e-06
-1.0198e-08
9.53538e-06
-1.65386e-08
9.53122e-06
4.60655e-08
9.52151e-06
7.11427e-08
9.51856e-06
7.38517e-08
9.51651e-06
7.29113e-08
9.51315e-06
8.24457e-08
9.50972e-06
8.9125e-08
9.50669e-06
8.5474e-08
9.50525e-06
8.70204e-08
9.50506e-06
9.68145e-08
9.50524e-06
1.02064e-07
9.50598e-06
1.04765e-07
9.50876e-06
1.08406e-07
9.51315e-06
1.13324e-07
9.51819e-06
1.16616e-07
1.16804e-07
9.52363e-06
1.00089e-05
2.56147e-08
1.00063e-05
-9.38515e-08
1.00067e-05
6.33052e-10
9.99124e-06
5.27896e-09
9.98724e-06
-1.25457e-08
9.98513e-06
4.81749e-08
9.9755e-06
8.07744e-08
9.97051e-06
7.88461e-08
9.96854e-06
7.48823e-08
9.96583e-06
8.51522e-08
9.96227e-06
9.26845e-08
9.95908e-06
8.86675e-08
9.95783e-06
8.82703e-08
9.95818e-06
9.64582e-08
9.95885e-06
1.01398e-07
9.95993e-06
1.0368e-07
9.96281e-06
1.05535e-07
9.96742e-06
1.08707e-07
9.97285e-06
1.11188e-07
1.11067e-07
9.97859e-06
1.04873e-05
2.69432e-08
1.04802e-05
-8.67563e-08
1.04823e-05
-1.45734e-09
1.04665e-05
2.10442e-08
1.04607e-05
-6.72263e-09
1.04603e-05
4.85519e-08
1.04516e-05
8.95615e-08
1.04446e-05
8.57914e-08
1.04421e-05
7.74203e-08
1.04401e-05
8.71589e-08
1.04367e-05
9.6035e-08
1.04333e-05
9.20513e-08
1.04321e-05
8.94846e-08
1.04329e-05
9.56401e-08
1.04341e-05
1.00197e-07
1.04357e-05
1.02136e-07
1.04387e-05
1.02527e-07
1.04434e-05
1.03949e-07
1.04492e-05
1.05438e-07
1.05004e-07
1.04553e-05
1.09888e-05
2.81563e-08
1.09858e-05
-8.37215e-08
1.09822e-05
2.11411e-09
1.09656e-05
3.76605e-08
1.09572e-05
1.64775e-09
1.09578e-05
4.7973e-08
1.09505e-05
9.68822e-08
1.0942e-05
9.43082e-08
1.09383e-05
8.10807e-08
1.09368e-05
8.8676e-08
1.0934e-05
9.88475e-08
1.09305e-05
9.54977e-08
1.09292e-05
9.08159e-08
1.09303e-05
9.44934e-08
1.09321e-05
9.8476e-08
1.09342e-05
1.00016e-07
1.09374e-05
9.93025e-08
1.09423e-05
9.90959e-08
1.09482e-05
9.94534e-08
9.8626e-08
1.09546e-05
1.15143e-05
2.92216e-08
1.1504e-05
-7.3453e-08
1.15047e-05
1.49305e-09
1.14894e-05
5.29396e-08
1.14782e-05
1.28055e-08
1.14787e-05
4.75196e-08
1.14732e-05
1.02387e-07
1.14637e-05
1.03812e-07
1.14585e-05
8.62418e-08
1.14571e-05
9.01211e-08
1.1455e-05
1.00927e-07
1.14517e-05
9.87734e-08
1.14502e-05
9.23383e-08
1.14515e-05
9.31663e-08
1.14536e-05
9.63399e-08
1.14564e-05
9.72123e-08
1.146e-05
9.57663e-08
1.14649e-05
9.4146e-08
1.14711e-05
9.33073e-08
9.19655e-08
1.14777e-05
1.2065e-05
3.00512e-08
1.20519e-05
-6.03847e-08
1.20519e-05
1.5652e-09
1.20387e-05
6.61381e-08
1.20249e-05
2.6532e-08
1.20242e-05
4.82272e-08
1.20205e-05
1.0609e-07
1.20107e-05
1.13585e-07
1.20039e-05
9.30475e-08
1.20021e-05
9.1972e-08
1.20007e-05
1.02291e-07
1.19979e-05
1.01605e-07
1.19962e-05
9.40037e-08
1.19976e-05
9.18395e-08
1.2e-05
9.38688e-08
1.20035e-05
9.37239e-08
1.20075e-05
9.18192e-08
1.20126e-05
8.90534e-08
1.20188e-05
8.70438e-08
8.50652e-08
1.20257e-05
1.26421e-05
3.05888e-08
1.26269e-05
-4.52708e-08
1.26264e-05
2.13351e-09
1.26147e-05
7.78585e-08
1.25985e-05
4.26579e-08
1.25958e-05
5.0933e-08
1.25936e-05
1.08352e-07
1.25842e-05
1.22918e-07
1.25759e-05
1.01396e-07
1.25732e-05
9.46907e-08
1.25723e-05
1.03158e-07
1.25701e-05
1.03775e-07
1.25684e-05
9.56774e-08
1.25696e-05
9.07044e-08
1.25724e-05
9.10028e-08
1.25764e-05
8.9735e-08
1.25809e-05
8.73311e-08
1.25862e-05
8.37732e-08
1.25926e-05
8.06517e-08
7.79531e-08
1.25997e-05
1.32467e-05
3.08023e-08
1.3233e-05
-3.15817e-08
1.32293e-05
5.84709e-09
1.32184e-05
8.87408e-08
1.32003e-05
6.07981e-08
1.31949e-05
5.63074e-08
1.31935e-05
1.09822e-07
1.31851e-05
1.31245e-07
1.31756e-05
1.10954e-07
1.31716e-05
9.86354e-08
1.31709e-05
1.03895e-07
1.31695e-05
1.05189e-07
1.3168e-05
9.71961e-08
1.31688e-05
8.98154e-08
1.31721e-05
8.77172e-08
1.31764e-05
8.54869e-08
1.31816e-05
8.21214e-08
1.3187e-05
7.83449e-08
1.31936e-05
7.40271e-08
7.06256e-08
1.3201e-05
1.38802e-05
3.0779e-08
1.3866e-05
-1.74088e-08
1.38604e-05
1.14775e-08
1.3851e-05
9.81537e-08
1.38316e-05
8.01255e-08
1.38231e-05
6.4862e-08
1.38216e-05
1.11323e-07
1.38145e-05
1.38304e-07
1.38043e-05
1.21202e-07
1.37989e-05
1.04018e-07
1.37979e-05
1.04929e-07
1.37971e-05
1.05941e-07
1.37959e-05
9.83822e-08
1.37967e-05
8.90693e-08
1.38002e-05
8.42096e-08
1.38046e-05
8.10318e-08
1.38106e-05
7.6111e-08
1.38162e-05
7.28151e-08
1.38232e-05
6.70143e-08
6.30458e-08
1.38308e-05
1.45438e-05
3.06389e-08
1.45267e-05
-3.14379e-10
1.45209e-05
1.7247e-08
1.45133e-05
1.05755e-07
1.44938e-05
9.96387e-08
1.44819e-05
7.6776e-08
1.44795e-05
1.13735e-07
1.44736e-05
1.44189e-07
1.44632e-05
1.31569e-07
1.44564e-05
1.10868e-07
1.44547e-05
1.06661e-07
1.44543e-05
1.06315e-07
1.44536e-05
9.90754e-08
1.44543e-05
8.83388e-08
1.44577e-05
8.0793e-08
1.44627e-05
7.60837e-08
1.4469e-05
6.98145e-08
1.44752e-05
6.65563e-08
1.44824e-05
5.98515e-08
5.50392e-08
1.44904e-05
1.5239e-05
3.04829e-08
1.52229e-05
1.57906e-08
1.52136e-05
2.65595e-08
1.52068e-05
1.1256e-07
1.51879e-05
1.18507e-07
1.51729e-05
9.17805e-08
1.51688e-05
1.17909e-07
1.51637e-05
1.49288e-07
1.51536e-05
1.41608e-07
1.51455e-05
1.19002e-07
1.51427e-05
1.09441e-07
1.51424e-05
1.06659e-07
1.51422e-05
9.92707e-08
1.5143e-05
8.75258e-08
1.51463e-05
7.75176e-08
1.51517e-05
7.06145e-08
1.51579e-05
6.36663e-08
1.51655e-05
5.89293e-08
1.51726e-05
5.27425e-08
4.6547e-08
1.51811e-05
1.59673e-05
3.05219e-08
1.59517e-05
3.14061e-08
1.59392e-05
3.90842e-08
1.5933e-05
1.18693e-07
1.59152e-05
1.36321e-07
1.58977e-05
1.09287e-07
1.58911e-05
1.24535e-07
1.58862e-05
1.54154e-07
1.58767e-05
1.51114e-07
1.58676e-05
1.28112e-07
1.58635e-05
1.13538e-07
1.58628e-05
1.07303e-07
1.58629e-05
9.91961e-08
1.58639e-05
8.65122e-08
1.58671e-05
7.43236e-08
1.58728e-05
6.49635e-08
1.58792e-05
5.72444e-08
1.58875e-05
5.06791e-08
1.58958e-05
4.44467e-08
3.83672e-08
1.59039e-05
1.67301e-05
3.09811e-08
1.67115e-05
5.00792e-08
1.66997e-05
5.08219e-08
1.66936e-05
1.24784e-07
1.6677e-05
1.52992e-07
1.66576e-05
1.28624e-07
1.66481e-05
1.34022e-07
1.66428e-05
1.5948e-07
1.66338e-05
1.60109e-07
1.6624e-05
1.37915e-07
1.66185e-05
1.19089e-07
1.66172e-05
1.08588e-07
1.66172e-05
9.91802e-08
1.66185e-05
8.52609e-08
1.66216e-05
7.11546e-08
1.66272e-05
5.94251e-08
1.66343e-05
5.01286e-08
1.66429e-05
4.2097e-08
1.66521e-05
3.52018e-08
2.95137e-08
1.6661e-05
1.75295e-05
3.18684e-08
1.75174e-05
6.21486e-08
1.74985e-05
6.97558e-08
1.74903e-05
1.32918e-07
1.74747e-05
1.68608e-07
1.74542e-05
1.49156e-07
1.74417e-05
1.46469e-07
1.74352e-05
1.6601e-07
1.74265e-05
1.68808e-07
1.74162e-05
1.48201e-07
1.74092e-05
1.26108e-07
1.74068e-05
1.1095e-07
1.74065e-05
9.95496e-08
1.74078e-05
8.39315e-08
1.7411e-05
6.79799e-08
1.74165e-05
5.38968e-08
1.74241e-05
4.25023e-08
1.74332e-05
3.30062e-08
1.74431e-05
2.5296e-08
1.92337e-08
1.74534e-05
1.83668e-05
3.34079e-08
1.83516e-05
7.73237e-08
1.83352e-05
8.62216e-08
1.83251e-05
1.43032e-07
1.83101e-05
1.83538e-07
1.8289e-05
1.70324e-07
1.82736e-05
1.61808e-07
1.82652e-05
1.74416e-07
1.82564e-05
1.7764e-07
1.82457e-05
1.58895e-07
1.82373e-05
1.34538e-07
1.82334e-05
1.14837e-07
1.82323e-05
1.00666e-07
1.82334e-05
8.28159e-08
1.82365e-05
6.48263e-08
1.82421e-05
4.82964e-08
1.82501e-05
3.45093e-08
1.82599e-05
2.32411e-08
1.82708e-05
1.43489e-08
7.72682e-09
1.82823e-05
1.92441e-05
3.56771e-08
1.92318e-05
8.96239e-08
1.92122e-05
1.05794e-07
1.91996e-05
1.55706e-07
1.9185e-05
1.98161e-07
1.91635e-05
1.91732e-07
1.91455e-05
1.79814e-07
1.91347e-05
1.85241e-07
1.91252e-05
1.87177e-07
1.9114e-05
1.7011e-07
1.91041e-05
1.44394e-07
1.90983e-05
1.20642e-07
1.90961e-05
1.02913e-07
1.90965e-05