/*--------------------------------*- C++ -*----------------------------------*\
| =========                 |                                                 |
| \\      /  F ield         | OpenFOAM: The Open Source CFD Toolbox           |
|  \\    /   O peration     | Version:  v2012                                 |
|   \\  /    A nd           | Website:  www.openfoam.com                      |
|    \\/     M anipulation  |                                                 |
\*---------------------------------------------------------------------------*/
FoamFile
{
    version     2.0;
    format      ascii;
    class       volVectorField;
    location    "3.2";
    object      U;
}
// * * * * * * * * * * * * * * * * * * * * * * * * * * * * * * * * * * * * * //

dimensions      [0 1 -1 0 0 0 0];


internalField   nonuniform List<vector> 
17600
(
(0.844347 0.00550786 0)
(1.15602 -0.00549373 0)
(0.826756 0.00114113 0)
(1.14938 0.00161194 0)
(0.832452 -0.00136101 0)
(1.1352 0.000411941 0)
(0.839166 5.16338e-05 0)
(1.12805 -0.000704952 0)
(0.843757 -0.000227267 0)
(1.12036 -0.00118876 0)
(0.850287 0.000499024 0)
(1.11622 -0.000741059 0)
(0.856113 0.00147849 0)
(1.11292 -2.98559e-05 0)
(0.859434 0.00236553 0)
(1.1102 0.000443696 0)
(0.857401 0.00303715 0)
(1.10775 0.000778886 0)
(0.847914 0.00392952 0)
(1.10447 0.00120021 0)
(0.852675 0.00542218 0)
(1.1418 -0.00517284 0)
(0.83543 0.00102107 0)
(1.13382 0.00175717 0)
(0.846997 -0.00143381 0)
(1.11869 0.000545304 0)
(0.85754 -0.000111956 0)
(1.10867 -0.000525072 0)
(0.866315 -0.000403662 0)
(1.09713 -0.00102877 0)
(0.877825 0.00030217 0)
(1.08708 -0.000564992 0)
(0.891452 0.00130872 0)
(1.07436 0.000189241 0)
(0.907566 0.00231676 0)
(1.05644 0.000554683 0)
(0.926115 0.00333492 0)
(1.02987 0.000547643 0)
(0.948333 0.005336 0)
(0.988989 0.00026872 0)
(0.869195 0.00537577 0)
(1.11952 -0.00485536 0)
(0.854596 0.000896143 0)
(1.1059 0.00183527 0)
(0.874008 -0.00148157 0)
(1.08904 0.000617005 0)
(0.889055 -0.00018862 0)
(1.07609 -0.000437296 0)
(0.902934 -0.000461108 0)
(1.06056 -0.000997347 0)
(0.919057 0.000270922 0)
(1.04597 -0.000624912 0)
(0.937024 0.00136012 0)
(1.02963 1.79763e-05 0)
(0.955572 0.00251206 0)
(1.01191 0.000315751 0)
(0.971197 0.00369269 0)
(0.994131 0.000383715 0)
(0.980046 0.00574229 0)
(0.978277 0.00127298 0)
(0.891577 0.00538987 0)
(1.09361 -0.00461009 0)
(0.881991 0.000871182 0)
(1.07255 0.00178462 0)
(0.907457 -0.00145154 0)
(1.05496 0.000575708 0)
(0.923792 -0.000158811 0)
(1.04191 -0.000496782 0)
(0.939092 -0.000374805 0)
(1.02663 -0.00112013 0)
(0.954156 0.000394519 0)
(1.01417 -0.000830261 0)
(0.968215 0.00154136 0)
(1.00351 -0.000239316 0)
(0.979601 0.00274467 0)
(0.995433 0.000105298 0)
(0.98558 0.00392748 0)
(0.989493 0.000382945 0)
(0.985016 0.00587811 0)
(0.983834 0.00235066 0)
(0.916413 0.00543706 0)
(1.0682 -0.00443465 0)
(0.912417 0.000957432 0)
(1.04159 0.00163929 0)
(0.93952 -0.00136533 0)
(1.02601 0.000473629 0)
(0.952986 -8.07334e-05 0)
(1.01652 -0.00061894 0)
(0.965341 -0.000250945 0)
(1.00557 -0.00126695 0)
(0.975364 0.000519754 0)
(0.998697 -0.000993034 0)
(0.983027 0.00165906 0)
(0.994637 -0.000387381 0)
(0.988159 0.0028466 0)
(0.992678 2.69885e-05 0)
(0.989713 0.00401914 0)
(0.990623 0.00047423 0)
(0.987562 0.00596362 0)
(0.98626 0.00331233 0)
(0.940168 0.00549364 0)
(1.04665 -0.00432207 0)
(0.940486 0.00111849 0)
(1.0188 0.00145096 0)
(0.964698 -0.00126626 0)
(1.00763 0.000371246 0)
(0.973208 -1.15223e-05 0)
(1.00328 -0.000731378 0)
(0.980997 -0.000158258 0)
(0.997229 -0.0013649 0)
(0.986136 0.000588773 0)
(0.994578 -0.00107729 0)
(0.989433 0.00169387 0)
(0.993688 -0.000455405 0)
(0.991714 0.00285813 0)
(0.993543 1.14789e-05 0)
(0.992125 0.00403302 0)
(0.992187 0.000621336 0)
(0.989997 0.00601059 0)
(0.988324 0.00417538 0)
(0.960131 0.00554042 0)
(1.03072 -0.00425745 0)
(0.962757 0.00130628 0)
(1.00582 0.00126764 0)
(0.981592 -0.00118548 0)
(0.999456 0.000295767 0)
(0.985716 2.62744e-05 0)
(0.999222 -0.000811325 0)
(0.989794 -0.000103247 0)
(0.996277 -0.00141787 0)
(0.991983 0.000621354 0)
(0.995401 -0.00111753 0)
(0.993144 0.00169662 0)
(0.995238 -0.000490083 0)
(0.994281 0.00283828 0)
(0.995292 3.1056e-05 0)
(0.994291 0.00399477 0)
(0.994062 0.000847162 0)
(0.992198 0.00598402 0)
(0.990656 0.0049919 0)
(0.975027 0.00556327 0)
(1.02028 -0.00422119 0)
(0.978328 0.00148018 0)
(1.00061 0.00111616 0)
(0.991709 -0.00113192 0)
(0.997744 0.000244202 0)
(0.993259 3.95553e-05 0)
(0.999683 -0.000865539 0)
(0.995118 -6.84129e-05 0)
(0.998026 -0.0014471 0)
(0.995924 0.000643637 0)
(0.997555 -0.00113606 0)
(0.996081 0.00169635 0)
(0.997293 -0.0005038 0)
(0.996593 0.00280899 0)
(0.99719 8.44991e-05 0)
(0.996301 0.00391595 0)
(0.995948 0.00114867 0)
(0.994228 0.0058922 0)
(0.992863 0.00576076 0)
(0.98502 0.00555733 0)
(1.014 -0.00419693 0)
(0.988134 0.00161745 0)
(0.999754 0.00100019 0)
(0.997377 -0.00109823 0)
(0.998673 0.000203338 0)
(0.997905 4.27263e-05 0)
(1.00136 -0.000905568 0)
(0.998613 -3.95312e-05 0)
(1.00007 -0.00146468 0)
(0.998843 0.000665646 0)
(0.999617 -0.00113907 0)
(0.998485 0.00169668 0)
(0.999157 -0.00049513 0)
(0.998576 0.0027693 0)
(0.998861 0.000176612 0)
(0.998029 0.00380373 0)
(0.997559 0.00150865 0)
(0.995978 0.00576398 0)
(0.994722 0.00646208 0)
(0.991182 0.00552641 0)
(1.01031 -0.00417474 0)
(0.993826 0.00171351 0)
(1.00049 0.000911914 0)
(1.00047 -0.0010732 0)
(0.999995 0.00016386 0)
(1.00075 4.48577e-05 0)
(1.00279 -0.000938364 0)
(1.00086 -1.1323e-05 0)
(1.00159 -0.00147583 0)
(1.00089 0.000686956 0)
(1.00119 -0.00112893 0)
(1.0003 0.00169241 0)
(1.00062 -0.000462285 0)
(1.00013 0.002711 0)
(1.00019 0.000311348 0)
(0.999394 0.00366307 0)
(0.998823 0.00190873 0)
(0.997374 0.00563023 0)
(0.996198 0.00707427 0)
(0.994799 0.00547794 0)
(1.00806 -0.0041494 0)
(0.996957 0.00177432 0)
(1.00138 0.000841912 0)
(1.00213 -0.00104965 0)
(1.00092 0.000123108 0)
(1.00238 4.88677e-05 0)
(1.00364 -0.000966927 0)
(1.00218 1.57206e-05 0)
(1.00253 -0.001483 0)
(1.0022 0.000703201 0)
(1.00226 -0.00110782 0)
(1.00157 0.00167697 0)
(1.00171 -0.000405189 0)
(1.00128 0.0026264 0)
(1.0012 0.000487495 0)
(1.00044 0.00349985 0)
(0.999802 0.00232928 0)
(0.998477 0.00552131 0)
(0.997369 0.00758052 0)
(0.996909 0.0054184 0)
(1.00661 -0.00411815 0)
(0.998643 0.00180814 0)
(1.00201 0.000783601 0)
(1.00302 -0.00102529 0)
(1.00142 8.20375e-05 0)
(1.00324 5.45347e-05 0)
(1.00404 -0.000992283 0)
(1.00285 3.92392e-05 0)
(1.00303 -0.00148714 0)
(1.00297 0.000709514 0)
(1.00295 -0.00107656 0)
(1.00243 0.00164316 0)
(1.00251 -0.000324137 0)
(1.00214 0.00251252 0)
(1.00199 0.00069777 0)
(1.00127 0.00332543 0)
(1.00059 0.00274622 0)
(0.999388 0.00546293 0)
(0.998348 0.00797389 0)
(0.998166 0.00535153 0)
(1.00564 -0.00407956 0)
(0.999564 0.00182149 0)
(1.00237 0.000733538 0)
(1.00348 -0.00100064 0)
(1.00165 4.23085e-05 0)
(1.00366 6.06421e-05 0)
(1.00419 -0.00101477 0)
(1.00316 5.84412e-05 0)
(1.00327 -0.00148705 0)
(1.0034 0.000701608 0)
(1.00339 -0.00103418 0)
(1.003 0.0015852 0)
(1.00308 -0.000220125 0)
(1.00278 0.00237162 0)
(1.00261 0.000930848 0)
(1.00193 0.00315861 0)
(1.00125 0.00313423 0)
(1.00017 0.00546982 0)
(0.999203 0.00826056 0)
(0.998924 0.00527886 0)
(1.00501 -0.00403305 0)
(1.00009 0.00181879 0)
(1.00257 0.000690129 0)
(1.00373 -0.000977282 0)
(1.00177 5.56292e-06 0)
(1.00386 6.54819e-05 0)
(1.00423 -0.00103362 0)
(1.00328 7.12341e-05 0)
(1.00337 -0.0014805 0)
(1.00363 0.000676502 0)
(1.00366 -0.000979233 0)
(1.00337 0.00150148 0)
(1.00348 -9.66931e-05 0)
(1.00325 0.00220972 0)
(1.00307 0.00117149 0)
(1.00247 0.00301993 0)
(1.00179 0.00347427 0)
(1.00084 0.00554205 0)
(0.999955 0.00845788 0)
(0.999371 0.00520079 0)
(1.00462 -0.00397854 0)
(1.00039 0.00180289 0)
(1.00266 0.000652782 0)
(1.00387 -0.000957307 0)
(1.00183 -2.64843e-05 0)
(1.00396 6.7152e-05 0)
(1.00423 -0.00104671 0)
(1.00332 7.43609e-05 0)
(1.00341 -0.00146424 0)
(1.00376 0.000632236 0)
(1.00382 -0.000910073 0)
(1.00362 0.00139236 0)
(1.00374 4.51925e-05 0)
(1.00358 0.00203721 0)
(1.0034 0.00140363 0)
(1.00288 0.00292337 0)
(1.00223 0.00376098 0)
(1.0014 0.00566918 0)
(1.0006 0.00858855 0)
(0.99962 0.00511732 0)
(1.00437 -0.00391599 0)
(1.00058 0.00177542 0)
(1.0027 0.000621602 0)
(1.00394 -0.00094237 0)
(1.00187 -5.26881e-05 0)
(1.004 6.32727e-05 0)
(1.00423 -0.00105223 0)
(1.00334 6.60748e-05 0)
(1.00343 -0.00143478 0)
(1.00383 0.000568368 0)
(1.00392 -0.000826346 0)
(1.00377 0.0012599 0)
(1.00391 0.000199258 0)
(1.00381 0.00186827 0)
(1.00363 0.00161339 0)
(1.00319 0.00287372 0)
(1.00257 0.00400011 0)
(1.00187 0.0058354 0)
(1.00115 0.00867421 0)
(0.999751 0.00502836 0)
(1.00422 -0.00384518 0)
(1.00071 0.00173717 0)
(1.00269 0.000597314 0)
(1.00397 -0.000934236 0)
(1.00189 -7.22349e-05 0)
(1.00402 5.21847e-05 0)
(1.00422 -0.0010485 0)
(1.00335 4.46016e-05 0)
(1.00344 -0.0013914 0)
(1.00388 0.000486062 0)
(1.00397 -0.000730573 0)
(1.00388 0.00111036 0)
(1.00401 0.00035126 0)
(1.00397 0.00171902 0)
(1.00379 0.00179181 0)
(1.00343 0.00287094 0)
(1.00285 0.00419975 0)
(1.00225 0.00602257 0)
(1.00163 0.00873302 0)
(0.999818 0.00493378 0)
(1.00412 -0.00376577 0)
(1.0008 0.00168827 0)
(1.00266 0.000580784 0)
(1.00399 -0.000934806 0)
(1.00191 -8.36974e-05 0)
(1.00402 3.1406e-05 0)
(1.00421 -0.00103381 0)
(1.00335 8.49026e-06 0)
(1.00345 -0.00133363 0)
(1.00392 0.000386693 0)
(1.00401 -0.000625225 0)
(1.00396 0.000956135 0)
(1.00408 0.000488056 0)
(1.00409 0.00159977 0)
(1.0039 0.00193863 0)
(1.00362 0.00291241 0)
(1.00309 0.00436889 0)
(1.00259 0.00621582 0)
(1.00204 0.00878184 0)
(0.999855 0.00483348 0)
(1.00403 -0.00367734 0)
(1.00088 0.00162826 0)
(1.0026 0.000573323 0)
(1.00399 -0.000946023 0)
(1.00191 -8.47175e-05 0)
(1.00401 -2.65973e-06 0)
(1.0042 -0.00100596 0)
(1.00335 -4.19512e-05 0)
(1.00346 -0.0012622 0)
(1.00396 0.00027304 0)
(1.00404 -0.000513913 0)
(1.00403 0.000811516 0)
(1.00413 0.000600042 0)
(1.00419 0.00150869 0)
(1.004 0.00205754 0)
(1.00379 0.00299013 0)
(1.00331 0.00451756 0)
(1.0029 0.00640455 0)
(1.00242 0.00883511 0)
(0.999879 0.00472724 0)
(1.00395 -0.00357895 0)
(1.00095 0.00155602 0)
(1.00254 0.000576351 0)
(1.004 -0.000970181 0)
(1.00192 -7.30403e-05 0)
(1.00401 -5.05188e-05 0)
(1.00419 -0.000966225 0)
(1.00336 -0.000104301 0)
(1.00347 -0.00117934 0)
(1.004 0.000152519 0)
(1.00407 -0.00040714 0)
(1.00409 0.000683515 0)
(1.00417 0.00068413 0)
(1.00429 0.00144002 0)
(1.00409 0.00215214 0)
(1.00396 0.00309194 0)
(1.00354 0.00465526 0)
(1.0032 0.00658071 0)
(1.00278 0.00890049 0)
(0.999896 0.00461462 0)
(1.00388 -0.00346946 0)
(1.00102 0.0014701 0)
(1.00247 0.000591067 0)
(1.004 -0.00100949 0)
(1.00193 -4.75208e-05 0)
(1.004 -0.000112718 0)
(1.00418 -0.000916559 0)
(1.00337 -0.000178903 0)
(1.00348 -0.00109027 0)
(1.00405 3.66447e-05 0)
(1.00409 -0.000313522 0)
(1.00416 0.000576952 0)
(1.00422 0.00074512 0)
(1.00438 0.00139331 0)
(1.00419 0.00223102 0)
(1.00412 0.00320919 0)
(1.00376 0.00479291 0)
(1.00351 0.00674158 0)
(1.00313 0.00897843 0)
(0.999909 0.00449586 0)
(1.00381 -0.0033489 0)
(1.00109 0.00137011 0)
(1.00241 0.000618342 0)
(1.00399 -0.00106425 0)
(1.00193 -9.34854e-06 0)
(1.00399 -0.000187423 0)
(1.00418 -0.000860476 0)
(1.00338 -0.000261611 0)
(1.00349 -0.0010041 0)
(1.00409 -6.93898e-05 0)
(1.00412 -0.00024241 0)
(1.00422 0.000487492 0)
(1.00427 0.000783563 0)
(1.00448 0.00136015 0)
(1.00431 0.00229909 0)
(1.0043 0.00333405 0)
(1.004 0.00493825 0)
(1.00381 0.0068887 0)
(1.00347 0.00906526 0)
(0.999918 0.00437074 0)
(1.00374 -0.00321499 0)
(1.00116 0.00125317 0)
(1.00234 0.000661387 0)
(1.00399 -0.00113463 0)
(1.00194 3.97441e-05 0)
(1.00397 -0.000272066 0)
(1.00417 -0.000797024 0)
(1.00339 -0.000349176 0)
(1.0035 -0.000928273 0)
(1.00413 -0.000163478 0)
(1.00415 -0.000197653 0)
(1.00428 0.000406287 0)
(1.00432 0.000803892 0)
(1.00458 0.00132373 0)
(1.00443 0.00235162 0)
(1.00448 0.00345156 0)
(1.00425 0.00508937 0)
(1.00413 0.00702332 0)
(1.00381 0.00916062 0)
(0.999921 0.00423681 0)
(1.00367 -0.00306389 0)
(1.00123 0.0011143 0)
(1.00228 0.000722649 0)
(1.00398 -0.00122554 0)
(1.00196 0.000105421 0)
(1.00395 -0.000372612 0)
(1.00417 -0.0007289 0)
(1.00339 -0.000432225 0)
(1.00351 -0.000870511 0)
(1.00418 -0.00023924 0)
(1.00419 -0.000172663 0)
(1.00434 0.000337855 0)
(1.00438 0.000815329 0)
(1.00468 0.00128771 0)
(1.00458 0.00237672 0)
(1.00468 0.00354797 0)
(1.00451 0.00522455 0)
(1.00445 0.0071442 0)
(1.00416 0.00927284 0)
(0.999915 0.00409871 0)
(1.0036 -0.00290344 0)
(1.00129 0.000961167 0)
(1.00222 0.000792069 0)
(1.00396 -0.00132473 0)
(1.00198 0.000170092 0)
(1.00393 -0.000463878 0)
(1.00418 -0.000684756 0)
(1.00339 -0.000479414 0)
(1.00353 -0.00085304 0)
(1.00421 -0.000282053 0)
(1.00423 -0.000184111 0)
(1.0044 0.00029713 0)
(1.00445 0.000799292 0)
(1.00478 0.00128518 0)
(1.00474 0.00234751 0)
(1.00489 0.00361903 0)
(1.00479 0.00525971 0)
(1.00479 0.00723037 0)
(1.00451 0.00938808 0)
(0.999903 0.00395288 0)
(1.00354 -0.00272442 0)
(1.00134 0.000785594 0)
(1.00216 0.000876165 0)
(1.00393 -0.00143558 0)
(1.00201 0.000240134 0)
(1.00389 -0.000548803 0)
(1.00419 -0.000653755 0)
(1.00338 -0.000503605 0)
(1.00356 -0.000853849 0)
(1.00425 -0.000314364 0)
(1.00428 -0.000207394 0)
(1.00446 0.000240746 0)
(1.00452 0.000785719 0)
(1.00489 0.00128648 0)
(1.00491 0.00231586 0)
(1.0051 0.00363314 0)
(1.00509 0.00523765 0)
(1.00515 0.00717455 0)
(1.00489 0.00933045 0)
(0.999883 0.00379709 0)
(1.00348 -0.00252268 0)
(1.00139 0.000585268 0)
(1.00211 0.000971073 0)
(1.0039 -0.00156267 0)
(1.00204 0.00031457 0)
(1.00385 -0.000628946 0)
(1.00421 -0.000642865 0)
(1.00337 -0.000508222 0)
(1.00358 -0.000865506 0)
(1.00428 -0.000346232 0)
(1.00432 -0.000221223 0)
(1.00452 0.000163254 0)
(1.0046 0.000777122 0)
(1.00499 0.00128421 0)
(1.00509 0.00231301 0)
(1.00533 0.0036793 0)
(1.00539 0.00529161 0)
(1.00551 0.00715364 0)
(1.00531 0.00929358 0)
(0.999859 0.00363941 0)
(1.00342 -0.00231263 0)
(1.00143 0.000376928 0)
(1.00206 0.00106713 0)
(1.00386 -0.00167982 0)
(1.00208 0.000355458 0)
(1.0038 -0.000663624 0)
(1.00423 -0.000686237 0)
(1.00335 -0.000472842 0)
(1.00361 -0.000912259 0)
(1.0043 -0.000365811 0)
(1.00437 -0.000236546 0)
(1.00458 9.82889e-05 0)
(1.00469 0.000767061 0)
(1.0051 0.00135584 0)
(1.00528 0.00235652 0)
(1.00557 0.00380494 0)
(1.0057 0.005409 0)
(1.00588 0.0072414 0)
(1.00574 0.00927251 0)
(0.999833 0.00347078 0)
(1.00335 -0.00208053 0)
(1.00147 0.000151357 0)
(1.00201 0.00117431 0)
(1.00382 -0.00179518 0)
(1.00212 0.000374536 0)
(1.00375 -0.000665192 0)
(1.00425 -0.000757588 0)
(1.00333 -0.000423768 0)
(1.00363 -0.000944024 0)
(1.00433 -0.000405327 0)
(1.00441 -0.000206899 0)
(1.00464 8.77877e-05 0)
(1.0048 0.000824326 0)
(1.00521 0.00150378 0)
(1.00549 0.00247366 0)
(1.00583 0.00391646 0)
(1.00602 0.00555717 0)
(1.00625 0.00734362 0)
(1.00617 0.00927074 0)
(0.999808 0.00329816 0)
(1.00328 -0.00183713 0)
(1.00151 -8.03172e-05 0)
(1.00196 0.00126737 0)
(1.00377 -0.00189147 0)
(1.00216 0.000359273 0)
(1.00368 -0.000635381 0)
(1.00427 -0.000849597 0)
(1.00331 -0.000369633 0)
(1.00365 -0.000944403 0)
(1.00437 -0.000444075 0)
(1.00446 -9.47721e-05 0)
(1.00471 0.000157706 0)
(1.00491 0.000928046 0)
(1.00534 0.00168465 0)
(1.00569 0.00261992 0)
(1.0061 0.00399882 0)
(1.00635 0.00567674 0)
(1.00662 0.00742141 0)
(1.00659 0.00925064 0)
(0.999787 0.00312256 0)
(1.00319 -0.00158814 0)
(1.00156 -0.000308836 0)
(1.0019 0.0013328 0)
(1.00372 -0.00195323 0)
(1.00221 0.000302931 0)
(1.00362 -0.000581056 0)
(1.0043 -0.000949584 0)
(1.0033 -0.000315558 0)
(1.00366 -0.000911492 0)
(1.00442 -0.000441398 0)
(1.00451 5.86196e-05 0)
(1.00477 0.000256603 0)
(1.00504 0.00101894 0)
(1.00547 0.00187101 0)
(1.00589 0.0027752 0)
(1.00637 0.0040679 0)
(1.0067 0.00574 0)
(1.007 0.00746123 0)
(1.00699 0.00919752 0)
(0.99977 0.00293989 0)
(1.00309 -0.00133066 0)
(1.0016 -0.000529002 0)
(1.00184 0.00137457 0)
(1.00367 -0.00199029 0)
(1.00226 0.000212412 0)
(1.00355 -0.000505542 0)
(1.00432 -0.0010434 0)
(1.00329 -0.000262958 0)
(1.00366 -0.000811353 0)
(1.00447 -0.000413176 0)
(1.00457 0.000213522 0)
(1.00483 0.000373072 0)
(1.00517 0.00108957 0)
(1.00561 0.00203098 0)
(1.00609 0.00293626 0)
(1.00664 0.00412683 0)
(1.00705 0.00574625 0)
(1.00738 0.00744087 0)
(1.00739 0.00909601 0)
(0.999759 0.00275763 0)
(1.00298 -0.00107798 0)
(1.00165 -0.000732291 0)
(1.00178 0.00138091 0)
(1.00361 -0.00199738 0)
(1.00231 8.67465e-05 0)
(1.00348 -0.000412232 0)
(1.00433 -0.00112372 0)
(1.00329 -0.00018415 0)
(1.00366 -0.000636102 0)
(1.00453 -0.000380469 0)
(1.00463 0.000367906 0)
(1.00489 0.000522678 0)
(1.0053 0.00115085 0)
(1.00577 0.00214736 0)
(1.00628 0.00309368 0)
(1.00691 0.00418514 0)
(1.00741 0.00570704 0)
(1.00776 0.00735918 0)
(1.00778 0.0089473 0)
(0.999753 0.00257358 0)
(1.00285 -0.000832494 0)
(1.00169 -0.000909415 0)
(1.00171 0.00133973 0)
(1.00354 -0.00197377 0)
(1.00237 -6.4991e-05 0)
(1.00341 -0.00031753 0)
(1.00435 -0.00116094 0)
(1.00332 -7.729e-05 0)
(1.00365 -0.000418538 0)
(1.00459 -0.000344347 0)
(1.0047 0.000493757 0)
(1.00495 0.00069848 0)
(1.00544 0.00120633 0)
(1.00594 0.00221441 0)
(1.00647 0.00323298 0)
(1.00717 0.00425514 0)
(1.00775 0.00565013 0)
(1.00814 0.0072387 0)
(1.00816 0.00877074 0)
(0.999753 0.00238893 0)
(1.00272 -0.000599722 0)
(1.00172 -0.00104961 0)
(1.00165 0.00126575 0)
(1.00347 -0.00193441 0)
(1.00242 -0.000224354 0)
(1.00335 -0.000214007 0)
(1.00436 -0.00114125 0)
(1.00335 1.94394e-05 0)
(1.00363 -0.000194796 0)
(1.00464 -0.00029513 0)
(1.00478 0.000578832 0)
(1.005 0.00088246 0)
(1.00556 0.0012692 0)
(1.00613 0.00223848 0)
(1.00668 0.00333486 0)
(1.00742 0.00433299 0)
(1.00809 0.00559631 0)
(1.00853 0.00709525 0)
(1.00854 0.00857217 0)
(0.999756 0.00221121 0)
(1.00258 -0.000393659 0)
(1.00175 -0.00114392 0)
(1.00159 0.00116886 0)
(1.0034 -0.00188705 0)
(1.00249 -0.000372033 0)
(1.0033 -8.10308e-05 0)
(1.00437 -0.00108197 0)
(1.0034 9.43332e-05 0)
(1.00361 2.57323e-05 0)
(1.00469 -0.000231308 0)
(1.00486 0.000628352 0)
(1.00505 0.00106337 0)
(1.00567 0.00135829 0)
(1.00632 0.00224448 0)
(1.00689 0.00339369 0)
(1.00766 0.00440943 0)
(1.00841 0.00555746 0)
(1.00891 0.00694111 0)
(1.00892 0.00835181 0)
(0.999761 0.00203289 0)
(1.00243 -0.000208054 0)
(1.00177 -0.00119928 0)
(1.00153 0.00106075 0)
(1.00332 -0.0018205 0)
(1.00256 -0.00049969 0)
(1.00325 7.49071e-05 0)
(1.00438 -0.000992974 0)
(1.00346 0.000143066 0)
(1.00358 0.000243635 0)
(1.00472 -0.000145916 0)
(1.00496 0.000649839 0)
(1.00511 0.00122939 0)
(1.00577 0.00147847 0)
(1.00652 0.00225161 0)
(1.00713 0.00341497 0)
(1.0079 0.00447045 0)
(1.00871 0.00553302 0)
(1.00927 0.00678678 0)
(1.00929 0.00811386 0)
(0.999769 0.00185914 0)
(1.00228 -4.80486e-05 0)
(1.00179 -0.00122641 0)
(1.00147 0.000964319 0)
(1.00324 -0.00172492 0)
(1.00263 -0.000602882 0)
(1.00321 0.000222309 0)
(1.00437 -0.000878102 0)
(1.00353 0.000157042 0)
(1.00355 0.00045449 0)
(1.00474 -3.3179e-05 0)
(1.00507 0.00065294 0)
(1.00518 0.00137191 0)
(1.00585 0.00162765 0)
(1.00671 0.00227139 0)
(1.00737 0.00340419 0)
(1.00815 0.00449904 0)
(1.009 0.00550808 0)
(1.00962 0.00663317 0)
(1.00966 0.00785905 0)
(0.999779 0.00169446 0)
(1.00213 7.53518e-05 0)
(1.00179 -0.00122672 0)
(1.00141 0.000884756 0)
(1.00315 -0.00159008 0)
(1.00272 -0.000689781 0)
(1.00319 0.000348122 0)
(1.00436 -0.000744542 0)
(1.00361 0.000148167 0)
(1.00353 0.000644893 0)
(1.00475 0.000107605 0)
(1.00519 0.000646098 0)
(1.00526 0.00148193 0)
(1.00593 0.00179566 0)
(1.00688 0.00231461 0)
(1.00763 0.00337015 0)
(1.00841 0.00448786 0)
(1.00928 0.00546961 0)
(1.00995 0.0064808 0)
(1.01001 0.00759283 0)
(0.99979 0.00153489 0)
(1.00198 0.000174823 0)
(1.0018 -0.00120632 0)
(1.00137 0.000824015 0)
(1.00306 -0.00142317 0)
(1.00281 -0.000761682 0)
(1.00318 0.000454836 0)
(1.00435 -0.000585447 0)
(1.00371 0.000129434 0)
(1.00352 0.000806918 0)
(1.00474 0.000282905 0)
(1.0053 0.000646087 0)
(1.00538 0.00155207 0)
(1.00601 0.0019658 0)
(1.00704 0.00238568 0)
(1.00788 0.00332687 0)
(1.00868 0.00443789 0)
(1.00955 0.00540859 0)
(1.01026 0.00632838 0)
(1.01035 0.00732373 0)
(0.999802 0.00137977 0)
(1.00183 0.000255011 0)
(1.0018 -0.00117334 0)
(1.00133 0.000781708 0)
(1.00297 -0.00122637 0)
(1.0029 -0.000805594 0)
(1.00318 0.000545942 0)
(1.00432 -0.000397356 0)
(1.0038 0.000113332 0)
(1.00354 0.000934564 0)
(1.00472 0.000485393 0)
(1.00541 0.000670486 0)
(1.00551 0.00158214 0)
(1.00609 0.0021174 0)
(1.00719 0.00247958 0)
(1.00813 0.00328873 0)
(1.00896 0.00435546 0)
(1.00982 0.0053181 0)
(1.01055 0.00616957 0)
(1.01067 0.00705558 0)
(0.999817 0.00123254 0)
(1.00168 0.000312278 0)
(1.0018 -0.00114753 0)
(1.0013 0.000748278 0)
(1.00287 -0.000997185 0)
(1.003 -0.000811233 0)
(1.00321 0.000620897 0)
(1.00429 -0.000189957 0)
(1.0039 0.000111847 0)
(1.00357 0.0010286 0)
(1.00469 0.000701952 0)
(1.00551 0.000730405 0)
(1.00566 0.00158067 0)
(1.00619 0.00222922 0)
(1.00732 0.00258224 0)
(1.00836 0.00326388 0)
(1.00925 0.00425211 0)
(1.01009 0.00519729 0)
(1.01082 0.00599889 0)
(1.01096 0.00678902 0)
(0.999832 0.00109002 0)
(1.00154 0.000355332 0)
(1.0018 -0.00113401 0)
(1.00129 0.000721302 0)
(1.00278 -0.000740585 0)
(1.00309 -0.000780998 0)
(1.00325 0.000682028 0)
(1.00425 2.93718e-05 0)
(1.004 0.000130938 0)
(1.00363 0.00108901 0)
(1.00466 0.000915641 0)
(1.00559 0.000823733 0)
(1.00583 0.00156494 0)
(1.00632 0.00229131 0)
(1.00744 0.00267665 0)
(1.00858 0.00325247 0)
(1.00953 0.00414034 0)
(1.01037 0.0050513 0)
(1.01109 0.00581396 0)
(1.01124 0.00652314 0)
(0.999849 0.000953816 0)
(1.00141 0.000389232 0)
(1.0018 -0.00112468 0)
(1.0013 0.000695029 0)
(1.00269 -0.000460007 0)
(1.00318 -0.000711276 0)
(1.00331 0.00073401 0)
(1.00422 0.000256781 0)
(1.00409 0.000176707 0)
(1.00371 0.00111591 0)
(1.00464 0.00111651 0)
(1.00566 0.00094817 0)
(1.006 0.00155774 0)
(1.00646 0.00231295 0)
(1.00757 0.00274962 0)
(1.00878 0.00324867 0)
(1.00981 0.00402768 0)
(1.01065 0.0048856 0)
(1.01135 0.00561203 0)
(1.0115 0.00625335 0)
(0.999866 0.000827126 0)
(1.00127 0.000410441 0)
(1.0018 -0.00111198 0)
(1.00133 0.000662251 0)
(1.00261 -0.000162913 0)
(1.00326 -0.000594974 0)
(1.00339 0.000778043 0)
(1.00418 0.000487445 0)
(1.00417 0.000260511 0)
(1.00381 0.00111808 0)
(1.00464 0.0012938 0)
(1.0057 0.00110033 0)
(1.00616 0.00157 0)
(1.00662 0.00230814 0)
(1.0077 0.00279214 0)
(1.00897 0.00324237 0)
(1.01007 0.00391578 0)
(1.01092 0.00470466 0)
(1.0116 0.00539205 0)
(1.01174 0.00597559 0)
(0.999885 0.000712587 0)
(1.00115 0.000422707 0)
(1.00181 -0.00107646 0)
(1.00138 0.000627427 0)
(1.00253 0.000131264 0)
(1.00334 -0.000443487 0)
(1.00349 0.000805562 0)
(1.00416 0.000713106 0)
(1.00424 0.00038745 0)
(1.00393 0.00111063 0)
(1.00466 0.00143234 0)
(1.00574 0.00126929 0)
(1.00632 0.00160622 0)
(1.0068 0.00229116 0)
(1.00784 0.0028049 0)
(1.00914 0.00322688 0)
(1.01031 0.00380544 0)
(1.0112 0.00451414 0)
(1.01185 0.00515606 0)
(1.01198 0.00568797 0)
(0.999904 0.000609216 0)
(1.00103 0.000457352 0)
(1.00181 -0.00100012 0)
(1.00146 0.000583177 0)
(1.00247 0.000393251 0)
(1.0034 -0.000274409 0)
(1.0036 0.000815572 0)
(1.00414 0.000924042 0)
(1.00429 0.000556883 0)
(1.00406 0.00111437 0)
(1.0047 0.00152718 0)
(1.00578 0.0014356 0)
(1.00646 0.00166477 0)
(1.00698 0.00227005 0)
(1.008 0.00278911 0)
(1.00931 0.00319355 0)
(1.01054 0.00369213 0)
(1.01146 0.00431694 0)
(1.0121 0.00490718 0)
(1.01219 0.00539153 0)
(0.999923 0.000493745 0)
(1.00091 0.000533037 0)
(1.00181 -0.000867909 0)
(1.00155 0.000548964 0)
(1.00243 0.000621258 0)
(1.00344 -9.22723e-05 0)
(1.00372 0.000811439 0)
(1.00415 0.00110226 0)
(1.00432 0.00075334 0)
(1.00418 0.00114129 0)
(1.00476 0.00158232 0)
(1.00581 0.00157917 0)
(1.00658 0.00173895 0)
(1.00716 0.0022514 0)
(1.00816 0.00274932 0)
(1.00947 0.00313572 0)
(1.01075 0.00356808 0)
(1.0117 0.00411099 0)
(1.01233 0.00464526 0)
(1.0124 0.00508423 0)
(0.999942 0.0004111 0)
(1.00081 0.000579865 0)
(1.0018 -0.000728836 0)
(1.00164 0.000517934 0)
(1.00239 0.000834766 0)
(1.00347 0.000116716 0)
(1.00384 0.00082001 0)
(1.00417 0.00125846 0)
(1.00435 0.000981669 0)
(1.00429 0.001212 0)
(1.00484 0.00162204 0)
(1.00586 0.00169524 0)
(1.00669 0.00182208 0)
(1.00732 0.0022428 0)
(1.00832 0.00269677 0)
(1.00963 0.00305621 0)
(1.01094 0.00343181 0)
(1.01193 0.00389811 0)
(1.01255 0.0043751 0)
(1.01259 0.00477015 0)
(0.999961 0.000349428 0)
(1.00071 0.000608626 0)
(1.00178 -0.000583056 0)
(1.00176 0.000489639 0)
(1.00237 0.00102947 0)
(1.00348 0.000348325 0)
(1.00396 0.000841405 0)
(1.00422 0.00138033 0)
(1.00436 0.00121781 0)
(1.00438 0.00132238 0)
(1.00493 0.00165998 0)
(1.00591 0.00178104 0)
(1.00678 0.00189902 0)
(1.00747 0.00224215 0)
(1.00847 0.00263778 0)
(1.00977 0.00295816 0)
(1.01111 0.00328012 0)
(1.01213 0.00367518 0)
(1.01276 0.0040952 0)
(1.01276 0.00444821 0)
(0.999978 0.000275153 0)
(1.00062 0.000681293 0)
(1.00176 -0.000398015 0)
(1.00187 0.000471969 0)
(1.00237 0.0011861 0)
(1.00347 0.000599574 0)
(1.00407 0.000880316 0)
(1.00429 0.00146581 0)
(1.00438 0.00143988 0)
(1.00445 0.00146477 0)
(1.00501 0.00170577 0)
(1.00596 0.00183881 0)
(1.00687 0.00195464 0)
(1.00761 0.00223833 0)
(1.0086 0.00257135 0)
(1.0099 0.00284268 0)
(1.01126 0.00310814 0)
(1.01232 0.00343459 0)
(1.01295 0.0037977 0)
(1.01293 0.00411076 0)
(0.999995 0.00021992 0)
(1.00054 0.000758209 0)
(1.00172 -0.000202882 0)
(1.00198 0.000462935 0)
(1.00238 0.00131648 0)
(1.00344 0.000873883 0)
(1.00417 0.000962637 0)
(1.00437 0.00153414 0)
(1.0044 0.00164815 0)
(1.00449 0.00164151 0)
(1.00507 0.00177769 0)
(1.00602 0.00188485 0)
(1.00694 0.00199116 0)
(1.00772 0.00222858 0)
(1.00872 0.00250382 0)
(1.01001 0.00272181 0)
(1.01139 0.00292497 0)
(1.01248 0.00318125 0)
(1.01312 0.00348502 0)
(1.01307 0.00375837 0)
(1.00001 0.00018123 0)
(1.00047 0.000804166 0)
(1.00166 5.58483e-06 0)
(1.00208 0.000486725 0)
(1.00242 0.00143421 0)
(1.0034 0.00116063 0)
(1.00423 0.00108934 0)
(1.00446 0.00158243 0)
(1.00444 0.00182241 0)
(1.00451 0.00183586 0)
(1.0051 0.00187886 0)
(1.00606 0.00192999 0)
(1.00701 0.00201146 0)
(1.00781 0.00220693 0)
(1.00881 0.00243329 0)
(1.01009 0.00259837 0)
(1.01148 0.00273521 0)
(1.0126 0.00291657 0)
(1.01326 0.00315504 0)
(1.0132 0.00338552 0)
(1.00002 0.000165162 0)
(1.00041 0.000823695 0)
(1.0016 0.0002222 0)
(1.00218 0.000535169 0)
(1.00247 0.00153355 0)
(1.00336 0.00144939 0)
(1.00427 0.00127321 0)
(1.00456 0.00163947 0)
(1.00448 0.00196678 0)
(1.00452 0.00203618 0)
(1.00511 0.00201418 0)
(1.00607 0.0019849 0)
(1.00706 0.00202238 0)
(1.00789 0.00216623 0)
(1.00888 0.00235156 0)
(1.01014 0.00246427 0)
(1.01153 0.00253852 0)
(1.01269 0.00264012 0)
(1.01337 0.00280655 0)
(1.0133 0.00298809 0)
(1.00003 0.000155023 0)
(1.00036 0.000843538 0)
(1.00153 0.00044996 0)
(1.00226 0.000614452 0)
(1.00254 0.00161629 0)
(1.00332 0.00172462 0)
(1.00427 0.00150329 0)
(1.00463 0.00172155 0)
(1.00454 0.00208444 0)
(1.00453 0.00222251 0)
(1.00509 0.00217736 0)
(1.00606 0.00206148 0)
(1.00708 0.00203454 0)
(1.00795 0.00211374 0)
(1.00893 0.00225462 0)
(1.01016 0.00231827 0)
(1.01155 0.00233501 0)
(1.01273 0.00235747 0)
(1.01344 0.00244578 0)
(1.01338 0.00256916 0)
(1.00004 0.000151127 0)
(1.00032 0.000874061 0)
(1.00146 0.000675973 0)
(1.00231 0.000731505 0)
(1.00262 0.00168168 0)
(1.00328 0.00198542 0)
(1.00424 0.00176839 0)
(1.00469 0.0018491 0)
(1.00461 0.00218697 0)
(1.00454 0.00239063 0)
(1.00504 0.00235148 0)
(1.00601 0.00216892 0)
(1.00706 0.00205269 0)
(1.00797 0.00205919 0)
(1.00895 0.00213641 0)
(1.01015 0.00215696 0)
(1.01151 0.00211546 0)
(1.01271 0.00206719 0)
(1.01346 0.00207276 0)
(1.01342 0.00212972 0)
(1.00004 0.000168358 0)
(1.00029 0.000899351 0)
(1.00138 0.000890155 0)
(1.00235 0.000889836 0)
(1.00271 0.00175124 0)
(1.00326 0.00222313 0)
(1.00418 0.00206208 0)
(1.0047 0.00202432 0)
(1.00466 0.00229093 0)
(1.00454 0.00253464 0)
(1.00498 0.00252155 0)
(1.00591 0.00229853 0)
(1.007 0.00208827 0)
(1.00794 0.00200688 0)
(1.00893 0.00200674 0)
(1.0101 0.00197715 0)
(1.01144 0.0018801 0)
(1.01264 0.00176509 0)
(1.01342 0.00169181 0)
(1.01341 0.00167626 0)
(1.00004 0.000191503 0)
(1.00027 0.000925945 0)
(1.0013 0.0011055 0)
(1.00236 0.00108441 0)
(1.0028 0.00184406 0)
(1.00325 0.00243117 0)
(1.0041 0.00237329 0)
(1.00468 0.00224932 0)
(1.0047 0.00242623 0)
(1.00455 0.00266915 0)
(1.00489 0.00269104 0)
(1.00577 0.00244731 0)
(1.00687 0.00215577 0)
(1.00787 0.00196808 0)
(1.00887 0.00187954 0)
(1.01 0.00178307 0)
(1.01131 0.00163115 0)
(1.01251 0.00145004 0)
(1.01331 0.00130392 0)
(1.01333 0.00121374 0)
(1.00004 0.000225035 0)
(1.00026 0.000954281 0)
(1.00122 0.00131417 0)
(1.00235 0.00131235 0)
(1.00288 0.00195842 0)
(1.00325 0.00262446 0)
(1.004 0.00268589 0)
(1.00461 0.002525 0)
(1.0047 0.00260325 0)
(1.00454 0.00281092 0)
(1.00479 0.00285212 0)
(1.00559 0.0026047 0)
(1.00668 0.00224327 0)
(1.00771 0.00194553 0)
(1.00873 0.00175266 0)
(1.00985 0.00157421 0)
(1.01111 0.00136013 0)
(1.0123 0.00111278 0)
(1.01313 0.000895195 0)
(1.01318 0.000732104 0)
(1.00004 0.000268137 0)
(1.00025 0.000991914 0)
(1.00116 0.00150431 0)
(1.00231 0.00156824 0)
(1.00294 0.00210249 0)
(1.00327 0.00280797 0)
(1.00391 0.00299066 0)
(1.00451 0.00283418 0)
(1.00466 0.00282115 0)
(1.00451 0.00296932 0)
(1.00467 0.00300971 0)
(1.00537 0.00276395 0)
(1.00642 0.00234865 0)
(1.00748 0.00194325 0)
(1.00852 0.0016349 0)
(1.00962 0.00135879 0)
(1.01085 0.00106656 0)
(1.01202 0.000748766 0)
(1.01286 0.000454957 0)
(1.01295 0.000219015 0)
(1.00004 0.000313375 0)
(1.00026 0.00104255 0)
(1.0011 0.0016835 0)
(1.00226 0.00183761 0)
(1.00298 0.0022913 0)
(1.00329 0.00299106 0)
(1.00381 0.00329193 0)
(1.00437 0.00317355 0)
(1.00458 0.00309035 0)
(1.00444 0.00316244 0)
(1.00453 0.00318457 0)
(1.00511 0.00293641 0)
(1.0061 0.00247868 0)
(1.00715 0.00197238 0)
(1.00822 0.00153505 0)
(1.0093 0.00114355 0)
(1.01051 0.000751677 0)
(1.01165 0.000347671 0)
(1.01251 -3.3418e-05 0)
(1.01263 -0.000357449 0)
(1.00003 0.000361806 0)
(1.00026 0.00110925 0)
(1.00106 0.00184771 0)
(1.00219 0.00212066 0)
(1.00299 0.00251955 0)
(1.00331 0.00318911 0)
(1.00372 0.00358405 0)
(1.00421 0.00353289 0)
(1.00444 0.00340864 0)
(1.00433 0.00340195 0)
(1.00436 0.00338791 0)
(1.00481 0.00313232 0)
(1.0057 0.00263671 0)
(1.00673 0.00203738 0)
(1.00779 0.0014633 0)