/*--------------------------------*- C++ -*----------------------------------*\
| =========                 |                                                 |
| \\      /  F ield         | OpenFOAM: The Open Source CFD Toolbox           |
|  \\    /   O peration     | Version:  v2012                                 |
|   \\  /    A nd           | Website:  www.openfoam.com                      |
|    \\/     M anipulation  |                                                 |
\*---------------------------------------------------------------------------*/
FoamFile
{
    version     2.0;
    format      ascii;
    class       volVectorField;
    location    "1.7";
    object      U;
}
// * * * * * * * * * * * * * * * * * * * * * * * * * * * * * * * * * * * * * //

dimensions      [0 1 -1 0 0 0 0];


internalField   nonuniform List<vector> 
17600
(
(0.848264 0.00329494 0)
(1.14015 -0.00636516 0)
(0.857241 0.00748399 0)
(1.13071 -0.0082277 0)
(0.845563 0.00651114 0)
(1.13125 -0.00313184 0)
(0.840732 0.00160176 0)
(1.12413 0.00029829 0)
(0.845488 -0.000272988 0)
(1.11667 5.63522e-05 0)
(0.850486 0.00060546 0)
(1.11096 -0.000805952 0)
(0.853961 0.000719537 0)
(1.10626 -0.000340715 0)
(0.85566 0.00162941 0)
(1.10346 0.000133223 0)
(0.853103 0.00244169 0)
(1.10186 0.000430634 0)
(0.843578 0.00356793 0)
(1.09955 0.000892771 0)
(0.858143 0.00328939 0)
(1.12632 -0.00623378 0)
(0.865261 0.00736761 0)
(1.11403 -0.00790931 0)
(0.853818 0.00632194 0)
(1.11186 -0.00286643 0)
(0.854043 0.00147052 0)
(1.10244 0.000511332 0)
(0.865707 -0.000448497 0)
(1.09216 0.000254085 0)
(0.877501 0.000428278 0)
(1.08098 -0.000618205 0)
(0.889337 0.000551478 0)
(1.06738 -0.000115697 0)
(0.903971 0.00156213 0)
(1.04978 0.000329547 0)
(0.921913 0.00271857 0)
(1.02426 0.00028633 0)
(0.94396 0.0049638 0)
(0.984418 2.22198e-05 0)
(0.877315 0.00331934 0)
(1.10364 -0.00610179 0)
(0.881934 0.00727215 0)
(1.08976 -0.00761281 0)
(0.872076 0.00611709 0)
(1.0824 -0.00267224 0)
(0.880708 0.00136846 0)
(1.06787 0.000539992 0)
(0.90008 -0.000494991 0)
(1.05444 0.000243813 0)
(0.917496 0.000429575 0)
(1.0401 -0.000656746 0)
(0.934199 0.000649395 0)
(1.02344 -0.000310838 0)
(0.951416 0.00177923 0)
(1.00621 3.85551e-05 0)
(0.966603 0.00307907 0)
(0.989301 4.08462e-05 0)
(0.975653 0.00534492 0)
(0.974164 0.000961444 0)
(0.902716 0.00338623 0)
(1.07683 -0.00598685 0)
(0.905005 0.00723016 0)
(1.06367 -0.00738616 0)
(0.897707 0.00602448 0)
(1.05197 -0.0026366 0)
(0.913845 0.0013939 0)
(1.03399 0.000397031 0)
(0.935986 -0.000413082 0)
(1.02123 6.73152e-05 0)
(0.95213 0.00055853 0)
(1.01043 -0.000853114 0)
(0.965432 0.000849006 0)
(0.999494 -0.000568158 0)
(0.975789 0.00202104 0)
(0.99155 -0.000201651 0)
(0.981679 0.00331889 0)
(0.986053 -1.15227e-05 0)
(0.981603 0.00547975 0)
(0.980835 0.00198176 0)
(0.929961 0.00347372 0)
(1.05083 -0.0058839 0)
(0.930395 0.00721193 0)
(1.0404 -0.0072129 0)
(0.925502 0.00602221 0)
(1.02756 -0.00271327 0)
(0.944678 0.00151076 0)
(1.01073 0.000195937 0)
(0.963837 -0.000303214 0)
(1.00247 -0.000117047 0)
(0.974407 0.000663987 0)
(0.998037 -0.00101733 0)
(0.981863 0.000978863 0)
(0.993501 -0.00070832 0)
(0.986255 0.00213117 0)
(0.991273 -0.000285344 0)
(0.987835 0.00341815 0)
(0.989331 7.12992e-05 0)
(0.986095 0.00556869 0)
(0.985179 0.00292101 0)
(0.954731 0.00356256 0)
(1.02965 -0.00579303 0)
(0.953866 0.00719471 0)
(1.02292 -0.00707946 0)
(0.950505 0.00605025 0)
(1.01217 -0.00283273 0)
(0.968056 0.00163692 0)
(0.99993 1.32267e-05 0)
(0.981684 -0.000225922 0)
(0.996512 -0.000244389 0)
(0.987084 0.000703439 0)
(0.9965 -0.00111092 0)
(0.990615 0.00103392 0)
(0.995114 -0.000771299 0)
(0.992325 0.00216267 0)
(0.994546 -0.000311987 0)
(0.992662 0.00344739 0)
(0.993125 0.000206217 0)
(0.990716 0.00561486 0)
(0.989281 0.0037743 0)
(0.97409 0.00363475 0)
(1.01516 -0.00571364 0)
(0.972527 0.0071678 0)
(1.01189 -0.00697328 0)
(0.969878 0.00606671 0)
(1.00475 -0.00294171 0)
(0.983385 0.0017206 0)
(0.997527 -0.000121327 0)
(0.992074 -0.000188791 0)
(0.99699 -0.000327947 0)
(0.994475 0.000704211 0)
(0.99865 -0.00116632 0)
(0.996109 0.00105676 0)
(0.998181 -0.000805437 0)
(0.996788 0.00216554 0)
(0.997853 -0.000303999 0)
(0.996593 0.00342718 0)
(0.996488 0.00042129 0)
(0.994468 0.00558986 0)
(0.992998 0.00459114 0)
(0.987134 0.00367896 0)
(1.00687 -0.00564388 0)
(0.985453 0.00712705 0)
(1.0061 -0.00688274 0)
(0.983106 0.00605425 0)
(1.00231 -0.00301622 0)
(0.992488 0.00175494 0)
(0.998647 -0.000212871 0)
(0.997949 -0.00017393 0)
(0.999115 -0.000389665 0)
(0.998964 0.000694998 0)
(1.00097 -0.00120258 0)
(0.999684 0.00107021 0)
(1.00061 -0.000821145 0)
(0.999847 0.00215503 0)
(1.00023 -0.000258751 0)
(0.999274 0.00336815 0)
(0.998845 0.000716986 0)
(0.997027 0.00550485 0)
(0.995634 0.0053677 0)
(0.994705 0.0036937 0)
(1.00295 -0.00558193 0)
(0.993313 0.00707301 0)
(1.00363 -0.00679919 0)
(0.991162 0.00601251 0)
(1.00215 -0.00305371 0)
(0.997524 0.00175443 0)
(1.00036 -0.000274649 0)
(1.0012 -0.00016403 0)
(1.00091 -0.00043835 0)
(1.00157 0.00068703 0)
(1.00252 -0.00122314 0)
(1.00178 0.00107913 0)
(1.00209 -0.000815639 0)
(1.00162 0.00213097 0)
(1.00159 -0.000173899 0)
(1.00078 0.00327546 0)
(1.00015 0.00107634 0)
(0.998481 0.00538711 0)
(0.997161 0.00608121 0)
(0.998486 0.00368506 0)
(1.0014 -0.0055255 0)
(0.997528 0.007008 0)
(1.00283 -0.00671669 0)
(0.995557 0.00594791 0)
(1.00265 -0.00306067 0)
(1.00013 0.00173353 0)
(1.00163 -0.00031519 0)
(1.00288 -0.000155128 0)
(1.00201 -0.000476212 0)
(1.00291 0.00068054 0)
(1.00337 -0.00122868 0)
(1.00284 0.00108081 0)
(1.00284 -0.000785493 0)
(1.00248 0.00208617 0)
(1.00224 -4.74837e-05 0)
(1.00147 0.00315383 0)
(1.00075 0.00147935 0)
(0.999192 0.00526492 0)
(0.99794 0.00670723 0)
(1.00012 0.00366147 0)
(1.00088 -0.00547152 0)
(0.999532 0.00693354 0)
(1.00268 -0.00663103 0)
(0.997714 0.00586615 0)
(1.00314 -0.00304488 0)
(1.0014 0.00169994 0)
(1.00234 -0.000338808 0)
(1.00367 -0.000150922 0)
(1.00257 -0.000503273 0)
(1.0035 0.000670305 0)
(1.00378 -0.00121889 0)
(1.0033 0.00106952 0)
(1.00318 -0.000729765 0)
(1.00284 0.00201379 0)
(1.00252 0.000120417 0)
(1.00175 0.00300987 0)
(1.001 0.00190383 0)
(0.999559 0.00516822 0)
(0.998374 0.00722682 0)
(1.00075 0.00362966 0)
(1.0007 -0.00541692 0)
(1.00039 0.00684997 0)
(1.00269 -0.00653922 0)
(0.998688 0.00576984 0)
(1.00344 -0.0030118 0)
(1.00198 0.00165584 0)
(1.00267 -0.000348265 0)
(1.00398 -0.000152909 0)
(1.00281 -0.000517852 0)
(1.00369 0.000650148 0)
(1.00395 -0.00119214 0)
(1.00347 0.00103907 0)
(1.00334 -0.000649694 0)
(1.00299 0.00191344 0)
(1.00266 0.000322517 0)
(1.00192 0.00285508 0)
(1.00117 0.00232267 0)
(0.999846 0.00512326 0)
(0.998732 0.00763259 0)
(1.00099 0.00359335 0)
(1.00061 -0.00535933 0)
(1.00073 0.00675712 0)
(1.0027 -0.00643927 0)
(0.999121 0.00565935 0)
(1.00359 -0.00296383 0)
(1.00225 0.00160015 0)
(1.0028 -0.000343816 0)
(1.00409 -0.000164279 0)
(1.0029 -0.000519186 0)
(1.00372 0.000616186 0)
(1.004 -0.00114744 0)
(1.00353 0.000985433 0)
(1.00343 -0.000547449 0)
(1.00309 0.00178726 0)
(1.00277 0.000546352 0)
(1.00207 0.00270948 0)
(1.00134 0.00270947 0)
(1.00016 0.00514372 0)
(0.999121 0.00793183 0)
(1.00108 0.003554 0)
(1.00055 -0.00529736 0)
(1.00087 0.00665484 0)
(1.00268 -0.0063299 0)
(0.999338 0.00553418 0)
(1.00364 -0.00290129 0)
(1.00239 0.00153063 0)
(1.00283 -0.000324146 0)
(1.00412 -0.000189518 0)
(1.00293 -0.000506473 0)
(1.0037 0.000565875 0)
(1.00402 -0.00108517 0)
(1.00356 0.000909385 0)
(1.00349 -0.000427683 0)
(1.00318 0.00164125 0)
(1.00288 0.000775684 0)
(1.00224 0.00259458 0)
(1.00155 0.00304658 0)
(1.0005 0.00522671 0)
(0.999548 0.00814357 0)
(1.00111 0.00351191 0)
(1.00053 -0.00523027 0)
(1.00092 0.00654303 0)
(1.00265 -0.00621017 0)
(0.999471 0.00539376 0)
(1.00364 -0.00282382 0)
(1.00249 0.00144569 0)
(1.00283 -0.000288682 0)
(1.00412 -0.000230199 0)
(1.00294 -0.000476196 0)
(1.00367 0.000496254 0)
(1.00402 -0.00100503 0)
(1.00358 0.000811719 0)
(1.00354 -0.000293938 0)
(1.00326 0.00148795 0)
(1.00298 0.000994535 0)
(1.00241 0.00252434 0)
(1.00176 0.00333399 0)
(1.00084 0.00535982 0)
(0.999987 0.00829338 0)
(1.00112 0.00346699 0)
(1.00053 -0.00515763 0)
(1.00094 0.00642138 0)
(1.00262 -0.0060791 0)
(0.999567 0.00523741 0)
(1.00361 -0.00273059 0)
(1.00257 0.00134363 0)
(1.00282 -0.000235926 0)
(1.00412 -0.000288978 0)
(1.00295 -0.000426116 0)
(1.00365 0.000407896 0)
(1.00402 -0.000908661 0)
(1.0036 0.000694822 0)
(1.00358 -0.000151713 0)
(1.00334 0.00134394 0)
(1.00307 0.0011873 0)
(1.00257 0.00250109 0)
(1.00197 0.0035812 0)
(1.00118 0.00552521 0)
(1.00041 0.00840505 0)
(1.0011 0.00341907 0)
(1.00056 -0.00507913 0)
(1.00094 0.00628944 0)
(1.0026 -0.00593584 0)
(0.999641 0.00506441 0)
(1.00357 -0.00262035 0)
(1.00263 0.00122212 0)
(1.0028 -0.000163279 0)
(1.00412 -0.000368978 0)
(1.00296 -0.000358563 0)
(1.00363 0.000305394 0)
(1.00403 -0.00080044 0)
(1.00363 0.000566736 0)
(1.00362 -5.23157e-06 0)
(1.00341 0.00122491 0)
(1.00316 0.0013425 0)
(1.00272 0.00251838 0)
(1.00218 0.00379513 0)
(1.0015 0.00570169 0)
(1.00082 0.00849141 0)
(1.00108 0.00336798 0)
(1.00059 -0.00499445 0)
(1.00092 0.0061467 0)
(1.00259 -0.00577976 0)
(0.999703 0.00487411 0)
(1.00351 -0.00249214 0)
(1.00269 0.00108 0)
(1.00277 -7.04508e-05 0)
(1.00412 -0.000468791 0)
(1.00298 -0.000277117 0)
(1.00362 0.000186033 0)
(1.00404 -0.000684326 0)
(1.00366 0.000441875 0)
(1.00366 0.000128632 0)
(1.00348 0.00114262 0)
(1.00324 0.0014643 0)
(1.00287 0.00256952 0)
(1.00239 0.00398589 0)
(1.0018 0.00587595 0)
(1.00121 0.00855712 0)
(1.00105 0.00331357 0)
(1.00063 -0.00490329 0)
(1.0009 0.0059927 0)
(1.00258 -0.00561015 0)
(0.999759 0.00466556 0)
(1.00345 -0.00234481 0)
(1.00275 0.000915773 0)
(1.00274 4.32333e-05 0)
(1.00413 -0.000587159 0)
(1.00301 -0.000183699 0)
(1.00361 5.24962e-05 0)
(1.00406 -0.000569197 0)
(1.0037 0.000331737 0)
(1.0037 0.000225347 0)
(1.00356 0.00109755 0)
(1.00333 0.00156288 0)
(1.00303 0.0026455 0)
(1.0026 0.00416803 0)
(1.00211 0.0060483 0)
(1.00159 0.00860915 0)
(1.00102 0.00325566 0)
(1.00067 -0.00480535 0)
(1.00088 0.00582681 0)
(1.00256 -0.00542592 0)
(0.999815 0.00443755 0)
(1.00339 -0.00217703 0)
(1.00281 0.00072786 0)
(1.00271 0.000176669 0)
(1.00413 -0.000722605 0)
(1.00303 -7.705e-05 0)
(1.00361 -7.90106e-05 0)
(1.00408 -0.000468663 0)
(1.00374 0.000244273 0)
(1.00375 0.000276711 0)
(1.00363 0.00107745 0)
(1.00343 0.00164369 0)
(1.00319 0.00272684 0)
(1.00282 0.00434559 0)
(1.00241 0.00622249 0)
(1.00197 0.00865638 0)
(1.00098 0.00319416 0)
(1.00072 -0.00470026 0)
(1.00085 0.00564813 0)
(1.00255 -0.00522588 0)
(0.999871 0.004189 0)
(1.00332 -0.00198784 0)
(1.00287 0.00051703 0)
(1.00268 0.000323103 0)
(1.00413 -0.0008707 0)
(1.00306 3.36435e-05 0)
(1.0036 -0.000205067 0)
(1.00411 -0.000393918 0)
(1.00378 0.000193129 0)
(1.0038 0.000294049 0)
(1.00371 0.00107493 0)
(1.00354 0.00171983 0)
(1.00336 0.00279957 0)
(1.00306 0.00451009 0)
(1.00271 0.00639953 0)
(1.00234 0.00870688 0)
(1.00094 0.00312891 0)
(1.00076 -0.00458757 0)
(1.00083 0.00545571 0)
(1.00254 -0.0050088 0)
(0.999931 0.00391881 0)
(1.00325 -0.00177651 0)
(1.00293 0.00028387 0)
(1.00265 0.000485181 0)
(1.00414 -0.00102563 0)
(1.0031 0.000136244 0)
(1.0036 -0.000310896 0)
(1.00414 -0.000353444 0)
(1.00383 0.00017914 0)
(1.00386 0.000289505 0)
(1.0038 0.00108272 0)
(1.00365 0.00180194 0)
(1.00355 0.0028658 0)
(1.00331 0.00464774 0)
(1.00302 0.00657549 0)
(1.0027 0.00876658 0)
(1.0009 0.00305967 0)
(1.00081 -0.00446631 0)
(1.00081 0.005248 0)
(1.00252 -0.00477365 0)
(0.999993 0.00362617 0)
(1.00317 -0.00154417 0)
(1.003 3.39755e-05 0)
(1.00263 0.000654993 0)
(1.00414 -0.00117994 0)
(1.00313 0.00021809 0)
(1.00359 -0.000377482 0)
(1.00418 -0.000362332 0)
(1.00387 0.000188928 0)
(1.00393 0.000266206 0)
(1.0039 0.00108684 0)
(1.00377 0.00189204 0)
(1.00375 0.00293758 0)
(1.00359 0.00474823 0)
(1.00334 0.00674069 0)
(1.00306 0.00883761 0)
(1.00087 0.00298616 0)
(1.00085 -0.00433533 0)
(1.00079 0.00502385 0)
(1.00251 -0.0045208 0)
(1.00006 0.00331201 0)
(1.0031 -0.00129539 0)
(1.00307 -0.000221933 0)
(1.0026 0.000824943 0)
(1.00414 -0.00132054 0)
(1.00318 0.000264631 0)
(1.00358 -0.0003954 0)
(1.00423 -0.000414896 0)
(1.00391 0.000217987 0)
(1.00399 0.000240139 0)
(1.00401 0.00106983 0)
(1.00391 0.00198941 0)
(1.00395 0.0030223 0)
(1.00388 0.00481189 0)
(1.00367 0.00687703 0)
(1.00343 0.00891459 0)
(1.00083 0.00290867 0)
(1.0009 -0.00419445 0)
(1.00077 0.00478249 0)
(1.00248 -0.00424907 0)
(1.00013 0.00297632 0)
(1.00302 -0.0010324 0)
(1.00314 -0.00048863 0)
(1.00258 0.000984672 0)
(1.00413 -0.0014353 0)
(1.00323 0.000263632 0)
(1.00357 -0.00036727 0)
(1.00427 -0.000499113 0)
(1.00396 0.00025381 0)
(1.00405 0.000231271 0)
(1.00413 0.00101774 0)
(1.00405 0.00208498 0)
(1.00416 0.0031201 0)
(1.00419 0.00485575 0)
(1.00402 0.00696828 0)
(1.00379 0.00899308 0)
(1.00079 0.00282631 0)
(1.00094 -0.00404071 0)
(1.00075 0.00452068 0)
(1.00246 -0.003958 0)
(1.00021 0.00262203 0)
(1.00294 -0.000759819 0)
(1.00321 -0.000761054 0)
(1.00256 0.00112195 0)
(1.00413 -0.00151138 0)
(1.00328 0.000211902 0)
(1.00355 -0.000307888 0)
(1.00432 -0.000604424 0)
(1.00402 0.000268855 0)
(1.00412 0.000260139 0)
(1.00427 0.000939587 0)
(1.00422 0.00217249 0)
(1.00438 0.00323519 0)
(1.00451 0.00490828 0)
(1.00439 0.00701485 0)
(1.00417 0.00906847 0)
(1.00075 0.00273911 0)
(1.00098 -0.00387407 0)
(1.00074 0.00423999 0)
(1.00243 -0.00365326 0)
(1.00029 0.0022565 0)
(1.00285 -0.000489778 0)
(1.00328 -0.00101423 0)
(1.00254 0.00123158 0)
(1.00411 -0.0015394 0)
(1.00335 0.000115727 0)
(1.00353 -0.000221171 0)
(1.00437 -0.000714767 0)
(1.00409 0.000257775 0)
(1.00417 0.000328381 0)
(1.00441 0.000877432 0)
(1.0044 0.00225273 0)
(1.0046 0.00338029 0)
(1.00483 0.00497889 0)
(1.00478 0.00702937 0)
(1.00456 0.00912414 0)
(1.0007 0.00264844 0)
(1.00102 -0.00369537 0)
(1.00073 0.00394238 0)
(1.00239 -0.00333706 0)
(1.00038 0.00188322 0)
(1.00277 -0.000227811 0)
(1.00336 -0.00124448 0)
(1.00253 0.00129322 0)
(1.00408 -0.00151685 0)
(1.00342 -2.21938e-05 0)
(1.00351 -0.000113453 0)
(1.00442 -0.000809846 0)
(1.00417 0.000222927 0)
(1.00423 0.000444307 0)
(1.00456 0.000904858 0)
(1.00461 0.00235052 0)
(1.00484 0.00357971 0)
(1.00516 0.00507772 0)
(1.00518 0.00703904 0)
(1.00496 0.00914263 0)
(1.00066 0.00255109 0)
(1.00105 -0.00349814 0)
(1.00073 0.00362439 0)
(1.00236 -0.00301113 0)
(1.00047 0.00151011 0)
(1.00268 1.42812e-05 0)
(1.00343 -0.0014441 0)
(1.00254 0.00130216 0)
(1.00405 -0.00144183 0)
(1.0035 -0.000195373 0)
(1.00349 -8.2148e-06 0)
(1.00446 -0.000860363 0)
(1.00427 0.000186625 0)
(1.0043 0.000622683 0)
(1.00472 0.00101969 0)
(1.00484 0.00245775 0)
(1.00509 0.00380223 0)
(1.00548 0.00520857 0)
(1.00559 0.00705135 0)
(1.00539 0.00912025 0)
(1.00062 0.00245004 0)
(1.00108 -0.00328917 0)
(1.00073 0.00329389 0)
(1.00231 -0.00268881 0)
(1.00057 0.00115034 0)
(1.0026 0.000224227 0)
(1.00349 -0.0015997 0)
(1.00255 0.00126713 0)
(1.004 -0.00132476 0)
(1.00359 -0.0003803 0)
(1.00348 0.000103834 0)
(1.00449 -0.000843052 0)
(1.00438 0.000180954 0)
(1.00438 0.000848896 0)
(1.00487 0.00117739 0)
(1.00508 0.00254188 0)
(1.00535 0.00399131 0)
(1.0058 0.00534927 0)
(1.006 0.00705681 0)
(1.00582 0.0090512 0)
(1.00058 0.00234522 0)
(1.00111 -0.00306909 0)
(1.00073 0.00295686 0)
(1.00227 -0.00238179 0)
(1.00066 0.000811439 0)
(1.00252 0.000399002 0)
(1.00355 -0.00171171 0)
(1.00257 0.00118757 0)
(1.00394 -0.0011634 0)
(1.00368 -0.000561892 0)
(1.00347 0.000248604 0)
(1.00452 -0.000723807 0)
(1.00452 0.000200858 0)
(1.00448 0.00108582 0)
(1.00502 0.00137189 0)
(1.00534 0.00260804 0)
(1.00562 0.0041313 0)
(1.00612 0.00547869 0)
(1.00641 0.00705782 0)
(1.00627 0.00893902 0)
(1.00054 0.00223488 0)
(1.00112 -0.00283901 0)
(1.00074 0.00262005 0)
(1.00222 -0.0020971 0)
(1.00076 0.000494215 0)
(1.00244 0.000537424 0)
(1.0036 -0.00178034 0)
(1.00261 0.00106859 0)
(1.00388 -0.000963347 0)
(1.00377 -0.00071105 0)
(1.00349 0.000395968 0)
(1.00454 -0.000515368 0)
(1.00466 0.000221773 0)
(1.00459 0.00128452 0)
(1.00516 0.00158504 0)
(1.0056 0.00266649 0)
(1.00592 0.00421342 0)
(1.00643 0.0055798 0)
(1.0068 0.00704685 0)
(1.00671 0.00879176 0)
(1.0005 0.00212356 0)
(1.00113 -0.00260949 0)
(1.00075 0.00229361 0)
(1.00216 -0.00183866 0)
(1.00086 0.0001997 0)
(1.00237 0.000646089 0)
(1.00364 -0.00181086 0)
(1.00266 0.000932892 0)
(1.00382 -0.000737522 0)
(1.00387 -0.000793957 0)
(1.00353 0.000516713 0)
(1.00454 -0.000262355 0)
(1.00481 0.000243421 0)
(1.00472 0.00142537 0)
(1.00529 0.00179917 0)
(1.00585 0.00272289 0)
(1.00623 0.00423814 0)
(1.00675 0.00563965 0)
(1.00719 0.00701523 0)
(1.00715 0.00861582 0)
(1.00047 0.00200898 0)
(1.00114 -0.00237963 0)
(1.00077 0.00198391 0)
(1.00211 -0.00160544 0)
(1.00096 -7.08775e-05 0)
(1.0023 0.000726176 0)
(1.00368 -0.0017959 0)
(1.00273 0.000786422 0)
(1.00375 -0.000474401 0)
(1.00396 -0.000812452 0)
(1.00358 0.000604227 0)
(1.00455 -1.89269e-06 0)
(1.00495 0.000279863 0)
(1.00487 0.00151566 0)
(1.00542 0.00200488 0)
(1.0061 0.00278774 0)
(1.00655 0.00422482 0)
(1.00709 0.00565919 0)
(1.00756 0.00696987 0)
(1.00758 0.00842927 0)
(1.00043 0.00189245 0)
(1.00113 -0.00215404 0)
(1.00078 0.00169548 0)
(1.00205 -0.00139415 0)
(1.00106 -0.00031262 0)
(1.00224 0.000770392 0)
(1.0037 -0.00173047 0)
(1.00281 0.000632024 0)
(1.00369 -0.000186224 0)
(1.00404 -0.000771051 0)
(1.00366 0.000642324 0)
(1.00455 0.000257919 0)
(1.00509 0.000351367 0)
(1.00504 0.00157297 0)
(1.00556 0.00219319 0)
(1.00633 0.00286883 0)
(1.00688 0.0041945 0)
(1.00743 0.0056436 0)
(1.00792 0.00691528 0)
(1.00798 0.00824538 0)
(1.00039 0.00177584 0)
(1.00112 -0.00193807 0)
(1.0008 0.00142993 0)
(1.00198 -0.00119484 0)
(1.00116 -0.000527824 0)
(1.00219 0.000792481 0)
(1.00372 -0.00161278 0)
(1.00291 0.000484162 0)
(1.00363 8.74235e-05 0)
(1.00411 -0.000679296 0)
(1.00375 0.000641643 0)
(1.00455 0.00050916 0)
(1.00521 0.000461989 0)
(1.00523 0.00160423 0)
(1.00571 0.00235034 0)
(1.00655 0.0029652 0)
(1.00721 0.00416285 0)
(1.00778 0.00559855 0)
(1.00828 0.00684814 0)
(1.00837 0.0080662 0)
(1.00036 0.00165808 0)
(1.00111 -0.00173245 0)
(1.00082 0.00118717 0)
(1.00192 -0.000999948 0)
(1.00125 -0.00071176 0)
(1.00216 0.000803965 0)
(1.00372 -0.00144026 0)
(1.00302 0.000353291 0)
(1.00359 0.000329836 0)
(1.00417 -0.00054296 0)
(1.00386 0.000630319 0)
(1.00456 0.000726494 0)
(1.00532 0.000590809 0)
(1.00543 0.00161259 0)
(1.00587 0.002469 0)
(1.00677 0.00307452 0)
(1.00754 0.00414311 0)
(1.00815 0.005531 0)
(1.00864 0.00676114 0)
(1.00874 0.00788612 0)
(1.00033 0.00153945 0)
(1.00109 -0.00153605 0)
(1.00084 0.000957846 0)
(1.00185 -0.000802036 0)
(1.00135 -0.000847796 0)
(1.00214 0.000781682 0)
(1.00372 -0.00123125 0)
(1.00314 0.000242612 0)
(1.00356 0.000531541 0)
(1.00421 -0.000372943 0)
(1.00398 0.00061686 0)
(1.00459 0.000909552 0)
(1.00542 0.000735571 0)
(1.00563 0.00161889 0)
(1.00605 0.0025543 0)
(1.00697 0.00318972 0)
(1.00785 0.00413731 0)
(1.00852 0.00544175 0)
(1.009 0.00664438 0)
(1.00909 0.0076963 0)
(1.0003 0.001422 0)
(1.00106 -0.00135384 0)
(1.00086 0.000744306 0)
(1.00179 -0.000605068 0)
(1.00144 -0.000933452 0)
(1.00214 0.000728594 0)
(1.00372 -0.00100058 0)
(1.00327 0.000156477 0)
(1.00355 0.000684236 0)
(1.00424 -0.000184007 0)
(1.0041 0.000612316 0)
(1.00463 0.00106306 0)
(1.0055 0.000898691 0)
(1.00583 0.00163883 0)
(1.00625 0.00261079 0)
(1.00718 0.00329507 0)
(1.00816 0.00413756 0)
(1.00888 0.00533166 0)
(1.00936 0.0064952 0)
(1.00944 0.00749383 0)
(1.00027 0.00130553 0)
(1.00103 -0.00118503 0)
(1.00089 0.000548864 0)
(1.00173 -0.000416904 0)
(1.00152 -0.000962724 0)
(1.00216 0.000669185 0)
(1.00372 -0.000761623 0)
(1.0034 0.000103307 0)
(1.00356 0.000791833 0)
(1.00426 2.23118e-05 0)
(1.00423 0.000629929 0)
(1.00468 0.00119099 0)
(1.00558 0.00107478 0)
(1.00603 0.00167588 0)
(1.00647 0.00264256 0)
(1.0074 0.00337584 0)
(1.00844 0.00413489 0)
(1.00924 0.00520584 0)
(1.00972 0.0063166 0)
(1.00977 0.00727679 0)
(1.00025 0.00118882 0)
(1.00099 -0.0010215 0)
(1.00093 0.000363645 0)
(1.00167 -0.000242363 0)
(1.00159 -0.000923088 0)
(1.0022 0.000602349 0)
(1.00372 -0.000532664 0)
(1.00352 8.47728e-05 0)
(1.00358 0.000865268 0)
(1.00428 0.000235138 0)
(1.00435 0.000666685 0)
(1.00476 0.00129318 0)
(1.00566 0.00125477 0)
(1.00623 0.00173352 0)
(1.0067 0.00265865 0)
(1.00762 0.00342893 0)
(1.00872 0.0041276 0)
(1.00959 0.00507489 0)
(1.01009 0.00611627 0)
(1.0101 0.0070427 0)
(1.00022 0.00107316 0)
(1.00096 -0.000861972 0)
(1.00097 0.000189188 0)
(1.00163 -8.78522e-05 0)
(1.00166 -0.000817456 0)
(1.00224 0.000538583 0)
(1.00372 -0.00031387 0)
(1.00365 0.00010607 0)
(1.00363 0.000921516 0)
(1.00429 0.000434107 0)
(1.00448 0.000713965 0)
(1.00485 0.00136997 0)
(1.00574 0.00142695 0)
(1.00642 0.0018091 0)
(1.00694 0.00266325 0)
(1.00784 0.00345339 0)
(1.00898 0.00411399 0)
(1.00993 0.00494706 0)
(1.01045 0.00590241 0)
(1.01044 0.00678837 0)
(1.0002 0.000957927 0)
(1.00091 -0.000704983 0)
(1.00101 2.78588e-05 0)
(1.0016 3.97315e-05 0)
(1.00171 -0.000660205 0)
(1.0023 0.000498514 0)
(1.00373 -0.000113791 0)
(1.00377 0.000165423 0)
(1.00369 0.000968382 0)
(1.00431 0.000615739 0)
(1.00459 0.000776927 0)
(1.00496 0.00142822 0)
(1.00582 0.00158373 0)
(1.00659 0.0018959 0)
(1.00719 0.00266055 0)
(1.00808 0.00345156 0)
(1.00923 0.00409248 0)
(1.01024 0.00482714 0)
(1.01081 0.00568396 0)
(1.01078 0.00651489 0)
(1.00019 0.000846164 0)
(1.00086 -0.000552491 0)
(1.00105 -0.000118228 0)
(1.00159 0.000133493 0)
(1.00177 -0.000470295 0)
(1.00236 0.000490207 0)
(1.00374 6.88443e-05 0)
(1.00388 0.000254649 0)
(1.00377 0.00101736 0)
(1.00433 0.000786115 0)
(1.00471 0.000858486 0)
(1.00509 0.00147448 0)
(1.00592 0.00172047 0)
(1.00676 0.00198771 0)
(1.00743 0.00265672 0)
(1.00833 0.00342874 0)
(1.00948 0.00405973 0)
(1.01054 0.00471346 0)
(1.01115 0.00546632 0)
(1.01111 0.0062266 0)
(1.00017 0.000739096 0)
(1.00081 -0.000406257 0)
(1.00109 -0.000237923 0)
(1.00159 0.000195156 0)
(1.00182 -0.000263948 0)
(1.00243 0.000516881 0)
(1.00376 0.000237006 0)
(1.00399 0.000361195 0)
(1.00385 0.00107687 0)
(1.00436 0.000949636 0)
(1.00482 0.000955376 0)
(1.00522 0.00151309 0)
(1.00602 0.0018313 0)
(1.00691 0.00207771 0)
(1.00767 0.00265345 0)
(1.00858 0.00338678 0)
(1.00973 0.00400721 0)
(1.01082 0.0045964 0)
(1.01147 0.00524824 0)
(1.01143 0.00592746 0)
(1.00016 0.000637159 0)
(1.00076 -0.000268104 0)
(1.00113 -0.000318328 0)
(1.00162 0.000222449 0)
(1.00187 -3.99163e-05 0)
(1.00249 0.000587539 0)
(1.00379 0.000392388 0)
(1.0041 0.000472714 0)
(1.00394 0.00114398 0)
(1.00439 0.0011119 0)
(1.00491 0.00106695 0)
(1.00537 0.00155002 0)
(1.00613 0.00191558 0)
(1.00706 0.00216206 0)
(1.0079 0.00265212 0)
(1.00884 0.00332871 0)
(1.00998 0.00392991 0)
(1.01109 0.00446808 0)
(1.01177 0.00502903 0)
(1.01174 0.00562379 0)
(1.00014 0.00054205 0)
(1.0007 -0.00014009 0)
(1.00116 -0.000358771 0)
(1.00166 0.000221945 0)
(1.00192 0.000187358 0)
(1.00255 0.000702501 0)
(1.00382 0.000548459 0)
(1.00421 0.000590947 0)
(1.00405 0.00121333 0)
(1.00443 0.00127345 0)
(1.005 0.00119459 0)
(1.00551 0.0015915 0)
(1.00626 0.00197854 0)
(1.0072 0.00223669 0)
(1.00811 0.00265225 0)
(1.00909 0.0032577 0)
(1.01022 0.00382765 0)
(1.01134 0.00432437 0)
(1.01204 0.00480879 0)
(1.01203 0.00532149 0)
(1.00013 0.000457135 0)
(1.00064 -2.97043e-05 0)
(1.00119 -0.000349307 0)
(1.00172 0.000210023 0)
(1.00199 0.00038653 0)
(1.00261 0.000843074 0)
(1.00385 0.000704632 0)
(1.00431 0.000714809 0)
(1.00416 0.00128189 0)
(1.00447 0.00142488 0)
(1.00508 0.0013349 0)
(1.00565 0.00164087 0)
(1.00639 0.00202457 0)
(1.00734 0.0022939 0)
(1.00831 0.0026475 0)
(1.00933 0.00317408 0)
(1.01046 0.00370231 0)
(1.01157 0.0041635 0)
(1.01229 0.00458652 0)
(1.01229 0.00502349 0)
(1.00012 0.000387532 0)
(1.00058 5.83667e-05 0)
(1.00121 -0.000292725 0)
(1.00179 0.000198686 0)
(1.00207 0.000549383 0)
(1.00266 0.00100064 0)
(1.00387 0.000868594 0)
(1.0044 0.000840587 0)
(1.00427 0.0013528 0)
(1.00452 0.00156031 0)
(1.00514 0.00148459 0)
(1.00578 0.00170502 0)
(1.00653 0.00206134 0)
(1.00748 0.00233234 0)
(1.00849 0.00263381 0)
(1.00956 0.00308038 0)
(1.0107 0.00355852 0)
(1.0118 0.00398605 0)
(1.01252 0.00435983 0)
(1.01253 0.00472919 0)
(1.00012 0.000329055 0)
(1.00053 0.000139855 0)
(1.00121 -0.000202235 0)
(1.00187 0.000202201 0)
(1.00216 0.000682967 0)
(1.00271 0.00116565 0)
(1.00389 0.00105242 0)
(1.00448 0.000974458 0)
(1.00439 0.00142804 0)
(1.00458 0.00168282 0)
(1.0052 0.00163493 0)
(1.00589 0.00178599 0)
(1.00666 0.00209489 0)
(1.00761 0.00235624 0)
(1.00866 0.00261021 0)
(1.00977 0.00297861 0)
(1.01092 0.00339866 0)
(1.01201 0.00379019 0)
(1.01273 0.00412284 0)
(1.01275 0.00443401 0)
(1.00011 0.000282361 0)
(1.00048 0.000215005 0)
(1.00122 -7.62633e-05 0)
(1.00194 0.000230882 0)
(1.00226 0.000789289 0)
(1.00277 0.00132449 0)
(1.00389 0.0012505 0)
(1.00455 0.00112707 0)
(1.0045 0.00150338 0)
(1.00464 0.00179517 0)
(1.00525 0.00177494 0)
(1.00599 0.00187624 0)
(1.00679 0.00212795 0)
(1.00773 0.00236924 0)
(1.0088 0.00257699 0)
(1.00995 0.00286823 0)
(1.01113 0.00322082 0)
(1.01221 0.00356983 0)
(1.01293 0.00386607 0)
(1.01293 0.00412956 0)
(1.0001 0.000248571 0)
(1.00044 0.000285118 0)
(1.00121 6.89382e-05 0)
(1.00201 0.00028593 0)
(1.00237 0.00087091 0)
(1.00284 0.00147089 0)
(1.0039 0.00144948 0)
(1.0046 0.00130129 0)
(1.00461 0.00158632 0)
(1.00471 0.00189488 0)
(1.00529 0.00190414 0)
(1.00607 0.00196672 0)
(1.0069 0.0021646 0)
(1.00784 0.00237671 0)
(1.00892 0.00254112 0)
(1.01011 0.00275589 0)
(1.01131 0.00303046 0)
(1.01239 0.00332642 0)
(1.0131 0.00358643 0)
(1.01309 0.00381128 0)
(1.0001 0.000226607 0)
(1.00041 0.000351382 0)
(1.0012 0.000228383 0)
(1.00208 0.000373298 0)
(1.00249 0.000943835 0)
(1.00291 0.00160105 0)
(1.0039 0.00164623 0)
(1.00463 0.00149302 0)
(1.00471 0.00169447 0)
(1.00478 0.00198552 0)
(1.00533 0.00202305 0)
(1.00614 0.00204992 0)
(1.00699 0.00220015 0)
(1.00793 0.00237963 0)
(1.00901 0.00250561 0)
(1.01023 0.0026465 0)
(1.01146 0.00283467 0)
(1.01255 0.00306398 0)
(1.01325 0.00328157 0)
(1.01323 0.00347228 0)
(1.00009 0.000218864 0)
(1.00038 0.000407122 0)
(1.00118 0.000400539 0)
(1.00213 0.000496998 0)
(1.00261 0.00102691 0)
(1.00299 0.00171313 0)
(1.0039 0.00183638 0)
(1.00465 0.00169442 0)
(1.00478 0.00183097 0)
(1.00485 0.00208479 0)
(1.00536 0.00213496 0)
(1.00618 0.00212647 0)
(1.00706 0.00222715 0)
(1.00801 0.00237218 0)
(1.00908 0.0024675 0)
(1.0103 0.00254005 0)
(1.01156 0.00264151 0)
(1.01268 0.00278887 0)
(1.01338 0.00295119 0)
(1.01335 0.00310469 0)
(1.00008 0.000220352 0)
(1.00036 0.000461969 0)
(1.00116 0.000570953 0)
(1.00216 0.000654611 0)
(1.00272 0.00112944 0)
(1.00308 0.00181369 0)
(1.0039 0.00201814 0)
(1.00465 0.001897 0)
(1.00484 0.00198825 0)
(1.0049 0.00220035 0)
(1.00537 0.00224811 0)
(1.0062 0.00220022 0)
(1.00712 0.00224286 0)
(1.00806 0.00234462 0)
(1.00912 0.00241527 0)
(1.01034 0.00243298 0)
(1.01161 0.002455 0)
(1.01275 0.00251309 0)
(1.01347 0.00260438 0)
(1.01344 0.00271001 0)
(1.00008 0.000227775 0)
(1.00035 0.000525729 0)
(1.00115 0.000729571 0)
(1.00219 0.000838878 0)
(1.00282 0.0012541 0)
(1.00317 0.00191715 0)
(1.00391 0.00219056 0)
(1.00465 0.00210692 0)
(1.00488 0.00216099 0)
(1.00494 0.00233921 0)
(1.00537 0.00236946 0)
(1.0062 0.00228405 0)
(1.00714 0.0022523 0)
(1.0081 0.00229983 0)
(1.00913 0.00233434 0)
(1.01033 0.00231439 0)
(1.01161 0.00226465 0)
(1.01277 0.00223928 0)
(1.01351 0.00224845 0)
(1.01349 0.00229448 0)
(1.00007 0.000243862 0)
(1.00034 0.000594756 0)
(1.00114 0.000882499 0)
(1.0022 0.00103449 0)
(1.0029 0.00140998 0)
(1.00325 0.00203724 0)
(1.00392 0.00235339 0)
(1.00463 0.00231772 0)
(1.0049 0.00234336 0)
(1.00496 0.00249457 0)
(1.00535 0.00250812 0)
(1.00615 0.00238479 0)
(1.00712 0.00227311 0)
(1.0081 0.00224989 0)
(1.00912 0.00223341 0)
(1.01029 0.00217457 0)
(1.01156 0.00206407 0)
(1.01273 0.00195984 0)
(1.01349 0.00188795 0)
(1.01349 0.00186396 0)
(1.00007 0.000264626 0)
(1.00033 0.000668359 0)
(1.00113 0.00104124 0)
(1.00221 0.00123568 0)
(1.00297 0.00159202 0)
(1.00333 0.00218173 0)
(1.00393 0.0025203 0)
(1.0046 0.00252351 0)
(1.0049 0.00253553 0)
(1.00496 0.00265453 0)
(1.0053 0.0026644 0)
(1.00607 0.00250594 0)
(1.00705 0.00231835 0)
(1.00805 0.00220715 0)
(1.00906 0.00212648 0)
(1.0102 0.00201542 0)
(1.01144 0.00185039 0)
(1.01262 0.00167237 0)
(1.0134 0.00152305 0)
(1.01343 0.00142551 0)
(1.00006 0.000289113 0)
(1.00033 0.000752348 0)
(1.00112 0.00119703 0)
(1.00221 0.00144259 0)
(1.00302 0.00178759 0)
(1.0034 0.00235176 0)
(1.00393 0.00270907 0)
(1.00456 0.0027415 0)
(1.00488 0.00274286 0)
(1.00494 0.00282935 0)
(1.00523 0.00282986 0)
(1.00595 0.00264823 0)
(1.00693 0.00238978 0)
(1.00795 0.00218247 0)
(1.00896 0.00201889 0)
(1.01007 0.00184291 0)
(1.01127 0.00161822 0)
(1.01244 0.00137212 0)
(1.01324 0.0011459 0)
(1.0133 0.00097535 0)
(1.00005 0.00031794 0)
(1.00033 0.000843614 0)
(1.00111 0.0013508 0)
(1.0022 0.00165273 0)
(1.00306 0.00199881 0)
(1.00345 0.0025431 0)
(1.00392 0.00292287 0)
(1.0045 0.00297871 0)
(1.00483 0.00296599 0)
(1.0049 0.00302379 0)
(1.00513 0.00300713 0)
(1.00579 0.00280646 0)
(1.00674 0.0024861 0)
(1.00777 0.00218207 0)
(1.00878 0.00191995 0)
(1.00987 0.00166378 0)
(1.01104 0.0013689 0)
(1.01218 0.0010501 0)
(1.01299 0.000746665 0)
(1.01308 0.000497508 0)
(1.00005 0.000353154 0)
(1.00032 0.000936793 0)
(1.00109 0.00151207 0)
(1.00218 0.00186906 0)
(1.00308 0.00222472 0)
(1.00349 0.00275409 0)
(1.00391 0.00315394 0)
(1.00443 0.00323684 0)
(1.00476 0.00320977 0)
(1.00483 0.00323879 0)
(1.00501 0.00320508 0)
(1.00558 0.00298512 0)
(1.00649 0.00261065 0)
(1.00751 0.00220833 0)
(1.00853 0.00183825 0)
(1.00959 0.00148228 0)
(1.01071 0.00110245 0)
(1.01183 0.000699314 0)
(1.01265 0.000310569 0)
(1.01278 -2.72638e-05 0)
(1.00004 0.000389982 0)
(1.00032 0.00103663 0)
(1.00108 0.00168276 0)
(1.00215 0.0020997 0)
(1.00309 0.00246293 0)
(1.00352 0.00298237 0)
(1.00388 0.00340524 0)
(1.00434 0.00351559 0)
(1.00466 0.00348415 0)
(1.00473 0.00348094 0)
(1.00485 0.00343167 0)
(1.00533 0.00319231 0)
(1.00617 0.00277167 0)
(1.00716 0.0022701 0)
(1.00817 0.00178221 0)
(1.0092 0.00130671 0)
(1.01029 0.000819573 0)
(1.01138 0.000314496 0)
(1.01219 -0.000179205 0)
(1.01235 -0.000624095 0)