/*--------------------------------*- C++ -*----------------------------------*\
| =========                 |                                                 |
| \\      /  F ield         | OpenFOAM: The Open Source CFD Toolbox           |
|  \\    /   O peration     | Version:  v2012                                 |
|   \\  /    A nd           | Website:  www.openfoam.com                      |
|    \\/     M anipulation  |                                                 |
\*---------------------------------------------------------------------------*/
FoamFile
{
    version     2.0;
    format      ascii;
    class       volScalarField;
    location    "1.65";
    object      p;
}
// * * * * * * * * * * * * * * * * * * * * * * * * * * * * * * * * * * * * * //

dimensions      [0 2 -2 0 0 0 0];


internalField   nonuniform List<scalar> 
17600
(
-9.28945e-11
0.000342337
0.000302873
-0.000391485
-0.00101476
-0.00150851
-0.00141093
-0.00209594
-0.00203034
-0.00300451
-0.00264756
-0.00346171
-0.00321582
-0.00365191
-0.00336841
-0.00304425
-0.00218423
-0.000747952
0.00133002
0.00543563
9.90088e-07
0.000341124
0.00030444
-0.000392118
-0.00101419
-0.0015092
-0.00141012
-0.00209778
-0.00202907
-0.00300897
-0.00264566
-0.00346863
-0.00321322
-0.00366207
-0.00336413
-0.00306339
-0.00217464
-0.000796634
0.00134559
0.00511704
2.2445e-06
0.000339407
0.000306365
-0.000393291
-0.00101317
-0.00151062
-0.00140936
-0.00210098
-0.00202891
-0.00301609
-0.00264467
-0.00347925
-0.00321063
-0.00367696
-0.00336003
-0.00308876
-0.00216491
-0.000854293
0.00134407
0.00467218
3.52022e-06
0.000337703
0.000308167
-0.000394777
-0.00101203
-0.00151275
-0.00140925
-0.00210521
-0.00203067
-0.00302473
-0.00264558
-0.00349064
-0.00320969
-0.00369157
-0.00335843
-0.00311229
-0.0021597
-0.000908623
0.00131225
0.00424509
5.0292e-06
0.000335936
0.000309788
-0.000396587
-0.00101079
-0.0015156
-0.00140957
-0.00211031
-0.00203335
-0.00303446
-0.00264666
-0.00350204
-0.00320863
-0.00370538
-0.00335718
-0.00313463
-0.00215787
-0.000962259
0.00124792
0.00384261
6.8563e-06
0.000333993
0.000311263
-0.000398689
-0.00100939
-0.00151895
-0.00140998
-0.00211588
-0.00203614
-0.00304472
-0.00264704
-0.00351307
-0.00320675
-0.00371854
-0.0033559
-0.00315669
-0.0021603
-0.0010174
0.00115093
0.00346499
8.95365e-06
0.000331852
0.000312666
-0.000400973
-0.00100782
-0.00152253
-0.0014103
-0.00212155
-0.0020389
-0.00305511
-0.00264705
-0.00352349
-0.00320497
-0.00373089
-0.00335616
-0.00317813
-0.0021694
-0.00107451
0.0010227
0.00310697
1.12538e-05
0.000329533
0.000314023
-0.000403335
-0.00100611
-0.00152616
-0.00141053
-0.00212718
-0.00204179
-0.00306553
-0.00264726
-0.00353327
-0.00320431
-0.0037421
-0.0033598
-0.0031979
-0.00218773
-0.00113351
0.000865356
0.00276201
1.37233e-05
0.000327068
0.000315576
-0.000405734
-0.00100433
-0.00152976
-0.00141076
-0.00213276
-0.002045
-0.00307594
-0.00264801
-0.00354243
-0.00320534
-0.00375185
-0.00336805
-0.00321511
-0.00221738
-0.00119395
0.000681658
0.00242287
1.63637e-05
0.000324481
0.000317316
-0.000408173
-0.00100253
-0.00153335
-0.00141105
-0.0021383
-0.00204867
-0.00308627
-0.00264957
-0.00355072
-0.00320854
-0.00375973
-0.00338176
-0.00322938
-0.0022599
-0.00125636
0.00047541
0.00208305
1.91955e-05
0.000321778
0.000319276
-0.000410672
-0.00100074
-0.00153697
-0.00141146
-0.00214383
-0.0020529
-0.00309637
-0.00265223
-0.00355776
-0.00321459
-0.00376511
-0.00340178
-0.00324073
-0.00231607
-0.00132299
0.000251621
0.00173781
2.22475e-05
0.000318954
0.00032147
-0.000413244
-0.000998995
-0.00154064
-0.001412
-0.00214933
-0.00205777
-0.00310608
-0.00265632
-0.00356306
-0.00322429
-0.00376725
-0.00342879
-0.00324957
-0.00238595
-0.00139757
1.5892e-05
0.00138442
2.55537e-05
0.000315992
0.000323909
-0.000415889
-0.000997292
-0.00154434
-0.0014127
-0.00215474
-0.0020634
-0.00311515
-0.00266223
-0.00356609
-0.00323844
-0.00376578
-0.00346317
-0.00325486
-0.00246839
-0.00148474
-0.000226725
0.00102224
2.91534e-05
0.000312873
0.000326602
-0.0004186
-0.00099565
-0.00154807
-0.0014136
-0.00216
-0.00206996
-0.00312331
-0.00267043
-0.00356634
-0.00325769
-0.00376064
-0.0035054
-0.00326244
-0.00256071
-0.00158888
-0.000472714
0.000652413
3.30911e-05
0.000309573
0.000329558
-0.000421358
-0.000994085
-0.00155178
-0.00141477
-0.002165
-0.00207765
-0.00313021
-0.00268141
-0.00356335
-0.00328255
-0.00375201
-0.00355536
-0.00327329
-0.00265959
-0.00171303
-0.000720429
0.000277479
3.7417e-05
0.000306061
0.000332788
-0.00042414
-0.000992625
-0.00155543
-0.00141631
-0.00216958
-0.00208672
-0.00313552
-0.00269567
-0.00355679
-0.0033133
-0.00374054
-0.0036121
-0.00329086
-0.00276232
-0.00185887
-0.000969847
-9.92244e-05
4.21877e-05
0.000302308
0.000336298
-0.000426906
-0.000991307
-0.00155895
-0.00141834
-0.00217355
-0.00209747
-0.00313883
-0.00271368
-0.0035465
-0.0033496
-0.00372745
-0.00367408
-0.00331871
-0.00286746
-0.00202663
-0.00122243
-0.000474246
4.74653e-05
0.000298281
0.000340088
-0.000429605
-0.000990182
-0.00156225
-0.00142102
-0.00217668
-0.00211024
-0.00313979
-0.00273578
-0.00353263
-0.0033909
-0.00371448
-0.00373913
-0.00336006
-0.00297503
-0.00221477
-0.00148083
-0.000844772
5.3317e-05
0.000293955
0.000344144
-0.000432173
-0.000989323
-0.00156521
-0.00142457
-0.00217869
-0.00212537
-0.00313814
-0.00276212
-0.00351558
-0.00343664
-0.00370453
-0.00380466
-0.00341702
-0.0030859
-0.0024206
-0.00174824
-0.00120898
5.98118e-05
0.000289315
0.000348444
-0.000434525
-0.000988839
-0.00156766
-0.00142922
-0.0021793
-0.00214314
-0.00313376
-0.00279259
-0.00349618
-0.00348564
-0.00369962
-0.00386887
-0.00349067
-0.00320187
-0.00264114
-0.0020275
-0.00156619
6.702e-05
0.000284356
0.00035295
-0.000436533
-0.000988882
-0.00156941
-0.00143525
-0.0021783
-0.00216369
-0.00312673
-0.00282678
-0.00347564
-0.00353618
-0.00370176
-0.00393127
-0.00358114
-0.00332557
-0.00287376
-0.00232052
-0.00191725
7.50093e-05
0.000279086
0.000357596
-0.000438014
-0.000989633
-0.00157024
-0.0014429
-0.00217552
-0.00218703
-0.00311742
-0.00286385
-0.00345539
-0.00358662
-0.00371244
-0.0039921
-0.0036878
-0.00345989
-0.00311652
-0.00262836
-0.00226455
8.38365e-05
0.000273551
0.000362283
-0.000438765
-0.00099129
-0.00156998
-0.00145234
-0.00217094
-0.00221296
-0.00310646
-0.00290272
-0.00343687
-0.00363556
-0.00373266
-0.00405236
-0.00380954
-0.00360755
-0.00336831
-0.00295158
-0.00261191
9.35479e-05
0.000267847
0.000366877
-0.000438565
-0.000994061
-0.00156848
-0.00146366
-0.00216472
-0.00224102
-0.00309474
-0.00294222
-0.00342121
-0.00368208
-0.00376294
-0.00411347
-0.00394487
-0.00377092
-0.00362854
-0.00329029
-0.00296443
0.000104176
0.000262128
0.000371226
-0.000437198
-0.000998126
-0.00156567
-0.00147679
-0.00215726
-0.00227056
-0.00308309
-0.00298141
-0.00340932
-0.00372569
-0.00380304
-0.00417711
-0.00409236
-0.00395172
-0.00389665
-0.0036433
-0.003328
0.000115715
0.000256607
0.000375184
-0.000434448
-0.00100362
-0.00156164
-0.00149153
-0.00214908
-0.00230084
-0.00307219
-0.00301958
-0.00340149
-0.00376668
-0.00385233
-0.00424496
-0.00425097
-0.00415111
-0.00417216
-0.00400838
-0.00370785
0.000128123
0.000251533
0.000378613
-0.000430124
-0.00101061
-0.00155663
-0.00150753
-0.00214079
-0.00233112
-0.00306252
-0.00305621
-0.00339782
-0.00380606
-0.00391111
-0.00431927
-0.00442019
-0.00436939
-0.00445431
-0.0043805
-0.00410464
0.000141332
0.000247209
0.000381386
-0.00042415
-0.00101897
-0.00155113
-0.00152423
-0.00213299
-0.00236091
-0.00305432
-0.00309106
-0.00339854
-0.00384461
-0.00398097
-0.00440483
-0.00460018
-0.00460481
-0.00474221
-0.0047555
-0.00451525
0.000155233
0.000244012
0.000382419
-0.000416636
-0.00102877
-0.00154561
-0.00154119
-0.002126
-0.00238996
-0.003048
-0.00312425
-0.00340481
-0.00388392
-0.00406463
-0.00450464
-0.00478839
-0.00485394
-0.0050356
-0.00512996
-0.00493304
0.000169671
0.000242307
0.000383797
-0.000407859
-0.00103879
-0.00154059
-0.00155807
-0.00212011
-0.00241824
-0.00304402
-0.00315689
-0.00341929
-0.0039294
-0.00416245
-0.00461666
-0.00498037
-0.00511355
-0.00533503
-0.00550147
-0.00535333
0.000184528
0.000242371
0.000385011
-0.000398136
-0.00104901
-0.00153661
-0.00157488
-0.00211551
-0.0024462
-0.00304309
-0.00319118
-0.00344444
-0.00398234
-0.00427047
-0.00473698
-0.00517266
-0.00538093
-0.00564177
-0.00586954
-0.00577132
0.000199744
0.000244381
0.000386558
-0.000387741
-0.00105924
-0.00153402
-0.00159219
-0.00211247
-0.00247453
-0.00304757
-0.00322857
-0.00347982
-0.00404096
-0.00438528
-0.00486417
-0.00536432
-0.00565442
-0.0059576
-0.00623556
-0.00618265
0.000215266
0.000248287
0.00038926
-0.000376921
-0.00106959
-0.00153275
-0.001611
-0.00211153
-0.00250411
-0.00306014
-0.00326968
-0.00352203
-0.00410254
-0.00450461
-0.00499879
-0.0055567
-0.00593321
-0.00628327
-0.00660024
-0.00658409
0.000231146
0.000253803
0.000393863
-0.000365659
-0.00108053
-0.00153276
-0.00163216
-0.00211455
-0.00253559
-0.00308088
-0.00331424
-0.00356874
-0.0041651
-0.00462662
-0.00514188
-0.0057516
-0.00621571
-0.00661718
-0.00696361
-0.00697401
0.000247566
0.000260477
0.000400781
-0.00035331
-0.00109312
-0.00153444
-0.00165612
-0.0021243
-0.00256872
-0.003107
-0.00336207
-0.00361976
-0.00422817
-0.00475045
-0.00529441
-0.00595009
-0.00649886
-0.00695567
-0.00732587
-0.00735296
0.000264757
0.000267697
0.000410241
-0.000338825
-0.00110827
-0.00153873
-0.00168407
-0.00214226
-0.00260312
-0.00313592
-0.0034129
-0.00367546
-0.00429222
-0.00487599
-0.00545676
-0.0061524
-0.00677887
-0.00729418
-0.00768712
-0.00772318
0.000283007
0.00027487
0.0004219
-0.000321002
-0.00112627
-0.00154731
-0.00171473
-0.0021688
-0.00263924
-0.00316604
-0.00346592
-0.00373627
-0.00435849
-0.00500322
-0.00562822
-0.00635847
-0.00705305
-0.0076285
-0.00804669
-0.00808699
0.000302699
0.000281609
0.000434468
-0.000298853
-0.00114684
-0.00156203
-0.00174777
-0.00220269
-0.00267821
-0.00319653
-0.0035198
-0.00380257
-0.00442868
-0.00513159
-0.00580689
-0.00656877
-0.00732127
-0.00795593
-0.00840265
-0.00844512
0.000324319
0.000287701
0.000445965
-0.00027214
-0.00116892
-0.00158434
-0.00178243
-0.00224263
-0.00272139
-0.00322762
-0.00357306
-0.00387409
-0.00450422
-0.00526013
-0.00599018
-0.00678405
-0.00758538
-0.00827516
-0.00875214
-0.00879625
0.000348336
0.000293136
0.00045435
-0.000241132
-0.00119094
-0.00161503
-0.00181872
-0.00228654
-0.00276992
-0.00326051
-0.0036248
-0.00395005
-0.00458565
-0.00538784
-0.00617548
-0.00700471
-0.00784764
-0.00858585
-0.00909213
-0.0091379
0.000375041
0.000298112
0.000457885
-0.000206949
-0.00121134
-0.0016543
-0.00185721
-0.00233217
-0.00282381
-0.00329722
-0.00367545
-0.00402915
-0.00467252
-0.00551407
-0.00636075
-0.0072304
-0.00810976
-0.00888814
-0.00942019
-0.00946721
0.000404517
0.000303117
0.000455116
-0.000171775
-0.00122873
-0.00170153
-0.00189858
-0.00237774
-0.00288205
-0.00333961
-0.00372663
-0.00411012
-0.00476401
-0.00563889
-0.00654424
-0.00745935
-0.008372
-0.00918223
-0.00973476
-0.00978173
0.000436645
0.00030904
0.000445106
-0.000138859
-0.00124213
-0.00175553
-0.00194372
-0.00242212
-0.00294318
-0.00338822
-0.00377952
-0.00419232
-0.00485994
-0.00576303
-0.00672368
-0.00768768
-0.00863296
-0.00946871
-0.0100361
-0.0100805
0.000471063
0.000316848
0.000427493
-0.00011193
-0.00125141
-0.00181459
-0.00199372
-0.00246466
-0.00300545
-0.00344268
-0.00383434
-0.0042755
-0.00496079
-0.00588764
-0.00689679
-0.00791008
-0.00888981
-0.00974844
-0.0103261
-0.0103645
0.000507275
0.000327234
0.00040246
-9.41389e-05
-0.00125724
-0.00187658
-0.00204973
-0.00250559
-0.00306672
-0.00350237
-0.00389097
-0.00435898
-0.00506662
-0.00601416
-0.0070629
-0.00812209
-0.00913873
-0.0100211
-0.0106066
-0.0106352
0.000544583
0.000340696
0.000370774
-8.83076e-05
-0.00126107
-0.00193933
-0.00211214
-0.00254596
-0.00312502
-0.00356607
-0.00394979
-0.0044412
-0.00517575
-0.00614366
-0.00722299
-0.00832164
-0.00937574
-0.0102843
-0.0108777
-0.0108942
0.000581991
0.000357342
0.000333779
-9.64586e-05
-0.00126493
-0.00200113
-0.00218044
-0.00258754
-0.00317974
-0.00363189
-0.0040111
-0.00452058
-0.00528498
-0.00627586
-0.00737901
-0.0085089
-0.00959746
-0.0105339
-0.0111377
-0.0111419
0.00061848
0.000376749
0.000293035
-0.000119757
-0.00127129
-0.00206126
-0.0022536
-0.00263185
-0.00323136
-0.00369819
-0.00407446
-0.00459602
-0.00539059
-0.00640887
-0.00753272
-0.00868524
-0.00980176
-0.0107654
-0.0113831
-0.0113782
0.00065337
0.000397913
0.00024941
-0.000157756
-0.00128272
-0.00211793
-0.00232989
-0.00267921
-0.00328089
-0.00376472
-0.00413889
-0.00466654
-0.00548893
-0.00653925
-0.00768475
-0.0088525
-0.00998811
-0.0109752
-0.0116096
-0.0116009
0.00068599
0.000419589
0.000203307
-0.000209534
-0.00130214
-0.0021719
-0.00240725
-0.00272892
-0.00332899
-0.00383184
-0.004204
-0.00473104
-0.00557659
-0.00666251
-0.00783406
-0.00901253
-0.0101576
-0.0111613
-0.0118125
-0.011806
0.000714987
0.000440029
0.000156076
-0.000274158
-0.00133157
-0.00222394
-0.00248402
-0.00278002
-0.00337507
-0.00389978
-0.00427117
-0.00478902
-0.0056503
-0.00677311
-0.00797706
-0.00916628
-0.0103126
-0.0113234
-0.0119884
-0.0119886
0.000738745
0.000457381
0.000108749
-0.000348973
-0.00137244
-0.00227643
-0.00255975
-0.00283137
-0.00341767
-0.0039678
-0.00434231
-0.00484169
-0.00570717
-0.00686449
-0.0081069
-0.00931263
-0.0104555
-0.0114634
-0.0121355
-0.0121439
0.000756117
0.000469581
6.09891e-05
-0.000430574
-0.00142472
-0.00233277
-0.0026353
-0.00288172
-0.00345506
-0.00403319
-0.00441821
-0.00489259
-0.0057459
-0.00693027
-0.00821548
-0.00944713
-0.0105874
-0.0115843
-0.0122543
-0.0122684
0.000766142
0.000474763
1.15525e-05
-0.000516224
-0.00148716
-0.00239588
-0.00271284
-0.00293076
-0.00348514
-0.0040917
-0.00449741
-0.00494553
-0.00576855
-0.00696588
-0.00829457
-0.00956111
-0.0107057
-0.0116883
-0.0123466
-0.0123607
0.000767682
0.000471433
-4.14083e-05
-0.000605079
-0.00155737
-0.00246655
-0.00279559
-0.00298045
-0.00350548
-0.00413821
-0.00457572
-0.00500281
-0.00578057
-0.00696988
-0.00833536
-0.00964331
-0.0108033
-0.011774
-0.0124143
-0.0124208
0.000759263
0.000458124
-9.96095e-05
-0.00069745
-0.00163241
-0.00254314
-0.00288656
-0.00303457
-0.00351543
-0.00416742
-0.00464614
-0.00506333
-0.00578732
-0.00694476
-0.00833164
-0.00968373
-0.0108698
-0.0118348
-0.012457
-0.0124497
0.000739214
0.0004334
-0.000165863
-0.00079351
-0.00171028
-0.00262329
-0.00298664
-0.00309749
-0.00351828
-0.00417453
-0.00469963
-0.00512169
-0.00579123
-0.00689537
-0.0082813
-0.00967232
-0.010892
-0.0118623
-0.0124698
-0.0124476
0.0007057
0.000396033
-0.000240845
-0.000895199
-0.00179098
-0.00270515
-0.00309422
-0.00317236
-0.0035201
-0.0041581
-0.00472695
-0.00516863
-0.00579024
-0.00682539
-0.00818527
-0.00960165
-0.0108588
-0.0118464
-0.0124473
-0.0124112
0.00065661
0.000345165
-0.000325264
-0.001006
-0.00187636
-0.00278645
-0.00320632
-0.00326017
-0.00352669
-0.00412241
-0.00472135
-0.00519221
-0.0057774
-0.00673516
-0.00804498
-0.00946741
-0.0107598
-0.0117748
-0.0123799
-0.0123353
0.000589937
0.000279603
-0.000420293
-0.0011287
-0.00196994
-0.00286573
-0.00331871
-0.00336014
-0.00354256
-0.00407347
-0.00468153
-0.00518136
-0.0057413
-0.0066208
-0.00786059
-0.00926577
-0.0105845
-0.0116326
-0.0122541
-0.0122107
0.000503665
0.000197314
-0.000526538
-0.00126464
-0.00207589
-0.00294518
-0.00342756
-0.00346931
-0.00357066
-0.0040163
-0.00460814
-0.00512795
-0.00566912
-0.00647339
-0.00762898
-0.00899207
-0.0103213
-0.011403
-0.0120519
-0.0120226
0.00039534
9.5751e-05
-0.000645026
-0.0014139
-0.00219773
-0.00302889
-0.00353134
-0.00358354
-0.00361239
-0.00395679
-0.00450345
-0.00502582
-0.0055489
-0.00628075
-0.0073408
-0.00863867
-0.00995644
-0.0110646
-0.0117502
-0.0117511
0.000262313
-2.82905e-05
-0.000777362
-0.00157605
-0.00233812
-0.00312124
-0.00363079
-0.00369968
-0.00366772
-0.0039017
-0.00437336
-0.00487286
-0.00536916
-0.00602727
-0.00698095
-0.00819001
-0.00946973
-0.0105874
-0.0113093
-0.0113494
0.00010194
-0.000178197
-0.000926213
-0.00175103
-0.00249833
-0.00322735
-0.00372863
-0.00381561
-0.00373684
-0.00385799
-0.00422794
-0.00467268
-0.0051217
-0.0056933
-0.00652714
-0.00761923
-0.00882734
-0.00993281
-0.0106843
-0.0107773
-8.9384e-05
-0.000356891
-0.00109525
-0.00193943
-0.00267815
-0.00335224
-0.00382929
-0.00393112
-0.00382004
-0.00383316
-0.0040829
-0.00443678
-0.00480511
-0.00526345
-0.00594673
-0.00688672
-0.00797912
-0.00904171
-0.00981429
-0.00997676
-0.000314209
-0.00056836
-0.00128755
-0.00214374
-0.00287679
-0.00349797
-0.00393933
-0.00404906
-0.00391861
-0.00383522
-0.00395539
-0.00419175
-0.00443368
-0.00472443
-0.00519932
-0.00593353
-0.00685853
-0.00782164
-0.00859301
-0.00885383
-0.000574717
-0.000815786
-0.00150988
-0.00236732
-0.00309266
-0.00366508
-0.00406327
-0.00417368
-0.00403735
-0.00387436
-0.00385779
-0.00396477
-0.00406675
-0.00411646
-0.00425552
-0.00463638
-0.00527363
-0.00603961
-0.00678517
-0.00722702
-0.00086717
-0.00109984
-0.0017724
-0.00261273
-0.00332483
-0.00385205
-0.00420366
-0.00430886
-0.00418041
-0.00396868
-0.0038073
-0.00375461
-0.00373401
-0.00360687
-0.00331506
-0.00292058
-0.00262096
-0.00262589
-0.00297284
-0.00353256
-0.00119869
-0.00142718
-0.00207706
-0.00288263
-0.00357069
-0.00405609
-0.00436329
-0.00445964
-0.0043473
-0.00412831
-0.0038695
-0.00355645
-0.00326918
-0.00321879
-0.003311
-0.0029393
-0.00159338
0.000293628
0.00195736
0.00297226
-0.00160339
-0.00180682
-0.00241442
-0.00317194
-0.00382349
-0.00426983
-0.00453993
-0.00462662
-0.00451405
-0.00428406
-0.00407895
-0.00369221
-0.00260046
-0.00110088
0.000346835
0.00159194
0.00276662
0.00392948
0.00490308
0.00528526
-0.00208429
-0.00224873
-0.00278951
-0.00347888
-0.00407429
-0.00447738
-0.00471003
-0.00478815
-0.00467189
-0.00410734
-0.00286436
-0.00143826
-0.000157708
0.000903595
0.00185679
0.00282256
0.00385112
0.00486632
0.00564079
0.0057977
-0.00263174
-0.0027629
-0.00321063
-0.00380223
-0.00431131
-0.00463316
-0.00478985
-0.004602
-0.00376515
-0.00260981
-0.00146418
-0.000482059
0.000377874
0.00129301
0.00233933
0.00350328
0.00469731
0.00577278
0.00650617
0.00656693
-0.00325462
-0.00336047
-0.00368099
-0.00410853
-0.0044919
-0.00455754
-0.00416479
-0.00351954
-0.00275503
-0.00195069
-0.00114177
-0.000277334
0.000698076
0.00179856
0.00302126
0.00431324
0.00557849
0.00666842
0.00736235
0.00733061
-0.0039526
-0.00405044
-0.00418853
-0.00426183
-0.00416382
-0.00388108
-0.0034465
-0.00294053
-0.00238334
-0.00170858
-0.000885069
8.7404e-05
0.00119189
0.00240514
0.00370114
0.00503284
0.00630942
0.00738192
0.00802177
0.00789965
-0.00467567
-0.0047209
-0.00451249
-0.00415118
-0.00377125
-0.00339979
-0.00303579
-0.00261407
-0.00207874
-0.00138124
-0.000504282
0.000527019
0.00168124
0.00293759
0.00426432
0.00560345
0.00686042
0.00788722
0.00846156
0.00826027
-0.00530983
-0.0052356
-0.00474175
-0.00410502
-0.00353441
-0.00308892
-0.00270406
-0.00228218
-0.00173316
-0.00101511
-0.000122788
0.000924856
0.00209946
0.00337111
0.00470107
0.0060286
0.00725844
0.00824473
0.0087689
0.0085116
-0.00580864
-0.00561792
-0.00496451
-0.00414443
-0.00341218
-0.00285048
-0.00240309
-0.00195347
-0.00139975
-0.0006852
0.000204928
0.00125536
0.00243693
0.00371451
0.00504315
0.00635907
0.00756687
0.00852247
0.00900977
0.00871199
-0.00618952
-0.00592481
-0.00517015
-0.00421982
-0.00334312
-0.00266421
-0.00214469
-0.00166321
-0.00110732
-0.00040466
0.000471066
0.00151474
0.00269947
0.00398169
0.00530999
0.00661749
0.0078088
0.00874162
0.00920211
0.00887561
-0.00647804
-0.00617008
-0.00534184
-0.00429465
-0.00331272
-0.0025382
-0.00194966
-0.00143271
-0.000864927
-0.000162719
0.000709212
0.00174848
0.00292759
0.00420546
0.00552867
0.00682691
0.00800437
0.0089203
0.00936235
0.00901676
-0.00666208
-0.00634136
-0.00547269
-0.00437072
-0.00333154
-0.00250498
-0.00187287
-0.00132478
-0.000737153
-2.06384e-05
0.000866266
0.00191988
0.0031088
0.00438877
0.00570549
0.00699222
0.00815744
0.00906326
0.00949835
0.0091483
0.00959904
0.00448733
-0.00302164
-0.00823176
-0.00930557
-0.00805166
-0.00653239
-0.00546618
-0.00485272
-0.00453386
-0.00439323
-0.0043738
-0.00443945
-0.00455493
-0.00469285
-0.00483928
-0.00498772
-0.00513336
-0.00527374
-0.00541021
-0.00554514
-0.00567844
-0.00580836
-0.00593459
-0.0060588
-0.00618254
-0.00630598
-0.00642882
-0.00655119
-0.00667309
-0.00679392
-0.00691335
-0.00703166
-0.00714905
-0.00726509
-0.00737924
-0.00749131
-0.00760149
-0.00770953
-0.00781481
-0.00791685
-0.00801586
-0.00811244
-0.00820685
-0.0082989
-0.0083885
-0.00847595
-0.00856191
-0.00864685
-0.00873115
-0.0088151
-0.00889898
-0.00898294
-0.00906712
-0.0091516
-0.00923648
-0.00932163
-0.00940682
-0.00949175
-0.00957621
-0.00965996
-0.00974303
-0.00982553
-0.00990769
-0.00998963
-0.0100717
-0.0101542
-0.0102376
-0.0103219
-0.0104067
-0.0104915
-0.0105761
-0.0106604
-0.0107446
-0.0108287
-0.0109128
-0.0109971
-0.0110821
-0.0111681
-0.0112548
-0.0113421
-0.0114295
-0.0115169
-0.0116039
-0.0116909
-0.0117782
-0.0118659
-0.0119541
-0.0120425
-0.0121313
-0.0122203
-0.0123093
-0.0123983
-0.0124872
-0.0125762
-0.0126655
-0.0127553
-0.0128457
-0.0129363
-0.0130272
-0.0131182
-0.0132093
-0.0133004
-0.0133919
-0.0134841
-0.0135768
-0.0136698
-0.0137628
-0.0138559
-0.0139492
-0.014043
-0.0141371
-0.0142317
-0.0143266
-0.0144216
-0.0145169
-0.0146124
-0.0147083
-0.0148047
-0.0149015
-0.0149986
-0.0150959
-0.0151932
-0.015291
-0.0153891
-0.0154879
-0.0155865
-0.0156851
-0.0157834
-0.0158822
-0.015981
-0.0160804
-0.0161797
-0.0162785
-0.0163765
-0.0164741
-0.0165727
-0.0166719
-0.0167709
-0.016868
-0.0169644
-0.0170611
-0.0171597
-0.0172583
-0.0173551
-0.0174503
-0.017546
-0.0176433
-0.0177407
-0.0178374
-0.0179324
-0.0180266
-0.0181218
-0.0182197
-0.0183169
-0.01841
-0.018503
-0.0186
-0.0186989
-0.0187927
-0.0188853
-0.0189817
-0.0190798
-0.0191752
-0.0192683
-0.0193654
-0.0194621
-0.0195587
-0.0196534
-0.0197507
-0.0198479
-0.0199443
-0.0200416
-0.0201382
-0.0202371
-0.0203339
-0.0204327
-0.0205308
-0.0206298
-0.0207294
-0.020828
-0.0209291
-0.0210283
-0.0211298
-0.0212308
-0.0213317
-0.0214353
-0.0215359
-0.0216408
-0.0217434
-0.0218475
-0.021953
-0.0220563
-0.0221636
-0.0222656
-0.022375
-0.0224707
-0.0225741
-0.0226615
-0.022724
0.00882277
0.00430354
-0.00294258
-0.00809828
-0.00922635
-0.00801412
-0.00650896
-0.00544953
-0.00484058
-0.00452452
-0.00438557
-0.00436721
-0.00443364
-0.00454971
-0.00468812
-0.00483495
-0.00498376
-0.00512973
-0.0052704
-0.00540713
-0.00554229
-0.00567581
-0.00580594
-0.00593235
-0.00605672
-0.00618061
-0.00630419
-0.00642716
-0.00654964
-0.00667163
-0.00679256
-0.00691207
-0.00703045
-0.00714791
-0.00726402
-0.00737822
-0.00749034
-0.00760057
-0.00770866
-0.00781398
-0.00791605
-0.00801509
-0.0081117
-0.00820614
-0.00829822
-0.00838784
-0.00847532
-0.0085613
-0.00864625
-0.00873057
-0.00881455
-0.00889844
-0.00898242
-0.00906661
-0.00915111
-0.009236
-0.00932117
-0.00940637
-0.00949131
-0.00957578
-0.00965955
-0.00974262
-0.00982514
-0.00990731
-0.00998926
-0.0100713
-0.0101539
-0.0102373
-0.0103216
-0.0104064
-0.0104912
-0.0105758
-0.0106601
-0.0107443
-0.0108285
-0.0109125
-0.0109969
-0.0110819
-0.0111678
-0.0112545
-0.0113418
-0.0114293
-0.0115167
-0.0116037
-0.0116907
-0.011778
-0.0118657
-0.0119539
-0.0120424
-0.0121311
-0.0122201
-0.0123092
-0.0123982
-0.012487
-0.012576
-0.0126654
-0.0127552
-0.0128455
-0.0129362
-0.0130271
-0.0131181
-0.0132091
-0.0133003
-0.0133918
-0.013484
-0.0135767
-0.0136697
-0.0137627
-0.0138558
-0.0139491
-0.0140429
-0.014137
-0.0142316
-0.0143264
-0.0144215
-0.0145168
-0.0146123
-0.0147082
-0.0148046
-0.0149014
-0.0149985
-0.0150958
-0.0151932
-0.0152909
-0.015389
-0.0154878
-0.0155864
-0.015685
-0.0157834
-0.0158821
-0.0159809
-0.0160803
-0.0161797
-0.0162785
-0.0163764
-0.016474
-0.0165727
-0.0166718
-0.0167708
-0.0168679
-0.0169643
-0.017061
-0.0171596
-0.0172583
-0.0173551
-0.0174502
-0.0175459
-0.0176433
-0.0177406
-0.0178374
-0.0179324
-0.0180266
-0.0181218
-0.0182196
-0.0183169
-0.01841
-0.0185029
-0.0186
-0.0186989
-0.0187927
-0.0188853
-0.0189817
-0.0190798
-0.0191751
-0.0192683
-0.0193654
-0.0194621
-0.0195587
-0.0196534
-0.0197506
-0.0198479
-0.0199443
-0.0200416
-0.0201382
-0.0202371
-0.0203339
-0.0204327
-0.0205308
-0.0206298
-0.0207294
-0.020828
-0.0209291
-0.0210283
-0.0211298
-0.0212308
-0.0213316
-0.0214353
-0.0215359
-0.0216408
-0.0217434
-0.0218475
-0.021953
-0.0220563
-0.0221636
-0.0222656
-0.022375
-0.0224707
-0.0225741
-0.0226615
-0.022724
0.00801316
0.00412232
-0.00276372
-0.00784147
-0.00907967
-0.0079554
-0.00647769
-0.0054261
-0.00482235
-0.00451062
-0.00437488
-0.00435877
-0.00442673
-0.00454384
-0.00468296
-0.00483032
-0.00497956
-0.00512589
-0.00526688
-0.00540389
-0.0055393
-0.00567305
-0.00580338
-0.00592999
-0.00605453
-0.00617859
-0.00630233
-0.00642542
-0.00654803
-0.00667014
-0.00679117
-0.00691077
-0.00702923
-0.00714677
-0.00726294
-0.0073772
-0.00748938
-0.00759966
-0.00770779
-0.00781315
-0.00791526
-0.00801434
-0.00811098
-0.00820545
-0.00829755
-0.0083872
-0.0084747
-0.0085607
-0.00864567
-0.00873001
-0.008814
-0.00889792
-0.00898191
-0.00906612
-0.00915063
-0.00923554
-0.00932072
-0.00940594
-0.00949089
-0.00957537
-0.00965915
-0.00974223
-0.00982476
-0.00990694
-0.0099889
-0.010071
-0.0101535
-0.010237
-0.0103213
-0.0104061
-0.0104909
-0.0105755
-0.0106598
-0.010744
-0.0108282
-0.0109123
-0.0109966
-0.0110816
-0.0111676
-0.0112543
-0.0113416
-0.0114291
-0.0115164
-0.0116034
-0.0116905
-0.0117778
-0.0118656
-0.0119537
-0.0120422
-0.0121309
-0.0122199
-0.012309
-0.012398
-0.0124869
-0.0125759
-0.0126652
-0.012755
-0.0128454
-0.012936
-0.0130269
-0.0131179
-0.013209
-0.0133001
-0.0133917
-0.0134838
-0.0135766
-0.0136695
-0.0137625
-0.0138557
-0.013949
-0.0140428
-0.0141369
-0.0142315
-0.0143263
-0.0144215
-0.0145167
-0.0146122
-0.0147082
-0.0148045
-0.0149013
-0.0149984
-0.0150957
-0.0151931
-0.0152908
-0.0153889
-0.0154877
-0.0155863
-0.015685
-0.0157833
-0.015882
-0.0159809
-0.0160802
-0.0161796
-0.0162784
-0.0163764
-0.016474
-0.0165726
-0.0166718
-0.0167708
-0.0168679
-0.0169643
-0.017061
-0.0171596
-0.0172582
-0.017355
-0.0174502
-0.0175459
-0.0176432
-0.0177406
-0.0178373
-0.0179324
-0.0180266
-0.0181218
-0.0182196
-0.0183169
-0.01841
-0.0185029
-0.0186
-0.0186988
-0.0187927
-0.0188853
-0.0189817
-0.0190798
-0.0191751
-0.0192683
-0.0193654
-0.0194621
-0.0195587
-0.0196534
-0.0197506
-0.0198478
-0.0199443
-0.0200416
-0.0201382
-0.020237
-0.0203338
-0.0204327
-0.0205308
-0.0206298
-0.0207294
-0.020828
-0.0209291
-0.0210283
-0.0211298
-0.0212308
-0.0213316
-0.0214353
-0.0215359
-0.0216408
-0.0217434
-0.0218475
-0.021953
-0.0220563
-0.0221636
-0.0222656
-0.022375
-0.0224707
-0.0225741
-0.0226615
-0.022724
0.00724179
0.00396052
-0.00251208
-0.00749736
-0.00887275
-0.00787038
-0.00643258
-0.00539084
-0.00479406
-0.00448924
-0.00435918
-0.00434713
-0.00441777
-0.00453657
-0.00467676
-0.00482485
-0.00497461
-0.00512137
-0.00526275
-0.0054001
-0.00553581
-0.0056698
-0.00580035
-0.00592717
-0.00605193
-0.00617619
-0.00630011
-0.00642338
-0.00654614
-0.0066684
-0.00678956
-0.00690927
-0.00702785
-0.00714548
-0.00726175
-0.00737609
-0.00748833
-0.00759867
-0.00770686
-0.00781227
-0.00791443
-0.00801355
-0.00811023
-0.00820473
-0.00829686
-0.00838654
-0.00847406
-0.00856008
-0.00864508
-0.00872944
-0.00881345
-0.00889738
-0.00898139
-0.00906562
-0.00915014
-0.00923507
-0.00932027
-0.0094055
-0.00949047
-0.00957496
-0.00965875
-0.00974184
-0.00982438
-0.00990657
-0.00998854
-0.0100706
-0.0101532
-0.0102366
-0.0103209
-0.0104058
-0.0104906
-0.0105752
-0.0106595
-0.0107438
-0.0108279
-0.010912
-0.0109964
-0.0110814
-0.0111673
-0.0112541
-0.0113414
-0.0114289
-0.0115162
-0.0116032
-0.0116903
-0.0117776
-0.0118654
-0.0119535
-0.012042
-0.0121307
-0.0122197
-0.0123088
-0.0123978
-0.0124867
-0.0125757
-0.0126651
-0.0127549
-0.0128452
-0.0129359
-0.0130268
-0.0131178
-0.0132089
-0.0133
-0.0133916
-0.0134837
-0.0135764
-0.0136694
-0.0137624
-0.0138556
-0.0139489
-0.0140426
-0.0141368
-0.0142314
-0.0143262
-0.0144214
-0.0145166
-0.0146121
-0.0147081
-0.0148044
-0.0149012
-0.0149983
-0.0150957
-0.015193
-0.0152907
-0.0153888
-0.0154876
-0.0155863
-0.0156849
-0.0157832
-0.015882
-0.0159808
-0.0160802
-0.0161796
-0.0162784
-0.0163763
-0.0164739
-0.0165726
-0.0166717
-0.0167707
-0.0168678
-0.0169642
-0.017061
-0.0171595
-0.0172582
-0.017355
-0.0174502
-0.0175459
-0.0176432
-0.0177406
-0.0178373
-0.0179323
-0.0180265
-0.0181218
-0.0182196
-0.0183169
-0.0184099
-0.0185029
-0.0185999
-0.0186988
-0.0187927
-0.0188852
-0.0189817
-0.0190798
-0.0191751
-0.0192683
-0.0193654
-0.0194621
-0.0195587
-0.0196534
-0.0197506
-0.0198478
-0.0199443
-0.0200416
-0.0201382
-0.020237
-0.0203338
-0.0204327
-0.0205308
-0.0206298
-0.0207294
-0.020828
-0.0209291
-0.0210282
-0.0211298
-0.0212308
-0.0213316
-0.0214353
-0.0215359
-0.0216408
-0.0217434
-0.0218475
-0.021953
-0.0220563
-0.0221636
-0.0222656
-0.022375
-0.0224707
-0.0225741
-0.0226615
-0.022724
0.00649897
0.00378215
-0.0022417
-0.00712059
-0.00863867
-0.00777297
-0.00638055
-0.00534712
-0.00475655
-0.00445995
-0.00433748
-0.00433116
-0.00440564
-0.0045269
-0.00466868
-0.00481781
-0.00496827
-0.00511559
-0.00525745
-0.00539525
-0.00553132
-0.00566559
-0.00579638
-0.00592344
-0.00604846
-0.00617298
-0.00629715
-0.00642065
-0.00654362
-0.00666607
-0.00678741
-0.0069073
-0.00702603
-0.0071438
-0.0072602
-0.00737466
-0.00748701
-0.00759744
-0.0077057
-0.00781119
-0.00791341
-0.0080126
-0.00810934
-0.00820389
-0.00829606
-0.00838577
-0.00847333
-0.00855938
-0.00864441
-0.00872879
-0.00881282
-0.00889677
-0.0089808
-0.00906506
-0.0091496
-0.00923456
-0.00931977
-0.00940502
-0.00949
-0.00957451
-0.00965831
-0.00974141
-0.00982395
-0.00990615
-0.00998813
-0.0100702
-0.0101528
-0.0102363
-0.0103206
-0.0104054
-0.0104903
-0.0105749
-0.0106592
-0.0107435
-0.0108276
-0.0109117
-0.0109961
-0.0110811
-0.0111671
-0.0112538
-0.0113411
-0.0114286
-0.011516
-0.011603
-0.01169
-0.0117773
-0.0118651
-0.0119533
-0.0120418
-0.0121305
-0.0122196
-0.0123086
-0.0123977
-0.0124865
-0.0125755
-0.0126649
-0.0127547
-0.0128451
-0.0129357
-0.0130267
-0.0131177
-0.0132087
-0.0132999
-0.0133914
-0.0134836
-0.0135763
-0.0136693
-0.0137623