/*--------------------------------*- C++ -*----------------------------------*\
| =========                 |                                                 |
| \\      /  F ield         | OpenFOAM: The Open Source CFD Toolbox           |
|  \\    /   O peration     | Version:  v2012                                 |
|   \\  /    A nd           | Website:  www.openfoam.com                      |
|    \\/     M anipulation  |                                                 |
\*---------------------------------------------------------------------------*/
FoamFile
{
    version     2.0;
    format      ascii;
    class       surfaceScalarField;
    location    "1.65";
    object      phi;
}
// * * * * * * * * * * * * * * * * * * * * * * * * * * * * * * * * * * * * * //

dimensions      [0 3 -1 0 0 0 0];
oriented        oriented;


internalField   nonuniform List<scalar> 
34900
(
1.1767e-06
-6.23632e-08
1.1679e-06
-2.09038e-08
1.17336e-06
-5.12716e-09
1.16871e-06
-1.03493e-07
1.17355e-06
4.28884e-08
1.17072e-06
-4.486e-08
1.17604e-06
1.68937e-07
1.16933e-06
-9.80569e-08
1.17659e-06
2.62065e-07
1.16218e-06
-2.102e-07
1.17244e-06
2.74075e-07
1.15356e-06
-1.92341e-07
1.16511e-06
1.98477e-07
1.14547e-06
-1.15623e-07
1.15735e-06
1.39671e-07
1.13632e-06
-6.47885e-08
1.14858e-06
1.01657e-07
1.12644e-06
-3.01991e-08
1.13461e-06
8.50105e-08
-7.75561e-09
1.08973e-06
1.23194e-06
-7.00454e-08
1.22512e-06
-1.40797e-08
1.2291e-06
-9.10815e-09
1.22622e-06
-1.00611e-07
1.22906e-06
4.00492e-08
1.22858e-06
-4.43824e-08
1.23048e-06
1.67035e-07
1.22693e-06
-9.45082e-08
1.22943e-06
2.59571e-07
1.21919e-06
-1.99963e-07
1.22243e-06
2.70837e-07
1.21117e-06
-1.81081e-07
1.21262e-06
1.97028e-07
1.20581e-06
-1.08814e-07
1.20314e-06
1.42339e-07
1.20144e-06
-6.30934e-08
1.19219e-06
1.10907e-07
1.1974e-06
-3.54091e-08
1.17489e-06
1.07526e-07
-7.88333e-09
1.17502e-06
1.28816e-06
-7.5418e-08
1.28631e-06
-1.22331e-08
1.2871e-06
-9.89888e-09
1.2879e-06
-1.01414e-07
1.28692e-06
4.1035e-08
1.29039e-06
-4.78508e-08
1.288e-06
1.69419e-07
1.28858e-06
-9.50854e-08
1.28662e-06
2.61526e-07
1.2811e-06
-1.94437e-07
1.27927e-06
2.72668e-07
1.27455e-06
-1.76364e-07
1.27042e-06
2.01156e-07
1.27037e-06
-1.08765e-07
1.26409e-06
1.4862e-07
1.26622e-06
-6.52182e-08
1.25872e-06
1.18407e-07
1.26004e-06
-3.67343e-08
1.25065e-06
1.16916e-07
7.73168e-09
1.23504e-06
1.34607e-06
-7.73825e-08
1.34985e-06
-1.60141e-08
1.34718e-06
-7.23042e-09
1.35189e-06
-1.0612e-07
1.34748e-06
4.5446e-08
1.35406e-06
-5.44345e-08
1.34925e-06
1.74227e-07
1.35242e-06
-9.8251e-08
1.34929e-06
2.64656e-07
1.34627e-06
-1.91421e-07
1.34409e-06
2.74853e-07
1.34142e-06
-1.73696e-07
1.33834e-06
2.04233e-07
1.33776e-06
-1.08187e-07
1.3353e-06
1.51085e-07
1.33383e-06
-6.37541e-08
1.33247e-06
1.19774e-07
1.32778e-06
-3.20487e-08
1.32547e-06
1.19232e-07
2.72987e-08
1.3059e-06
1.40679e-06
-7.58232e-08
1.41466e-06
-2.38806e-08
1.40977e-06
-2.34261e-09
1.41666e-06
-1.13002e-07
1.41101e-06
5.10961e-08
1.41826e-06
-6.16931e-08
1.41411e-06
1.78385e-07
1.41742e-06
-1.01565e-07
1.41616e-06
2.65911e-07
1.41333e-06
-1.8859e-07
1.41355e-06
2.74632e-07
1.41015e-06
-1.70294e-07
1.4102e-06
2.04188e-07
1.40727e-06
-1.05256e-07
1.4082e-06
1.5015e-07
1.40396e-06
-5.95113e-08
1.40533e-06
1.18402e-07
1.39796e-06
-2.46782e-08
1.3978e-06
1.19392e-07
4.71114e-08
1.37799e-06
1.47162e-06
-7.17719e-08
1.48085e-06
-3.31029e-08
1.47571e-06
2.79447e-09
1.48239e-06
-1.19687e-07
1.47771e-06
5.57808e-08
1.48353e-06
-6.75144e-08
1.48181e-06
1.80105e-07
1.48399e-06
-1.03741e-07
1.48536e-06
2.64533e-07
1.48199e-06
-1.85218e-07
1.4846e-06
2.72026e-07
1.48011e-06
-1.658e-07
1.48251e-06
2.01785e-07
1.47789e-06
-1.00639e-07
1.4807e-06
1.47342e-07
1.47488e-06
-5.36958e-08
1.47769e-06
1.15591e-07
1.46855e-06
-1.55358e-08
1.46999e-06
1.17958e-07
6.68442e-08
1.45025e-06
1.54129e-06
-6.68496e-08
1.54948e-06
-4.12845e-08
1.5456e-06
6.67496e-09
1.55049e-06
-1.24585e-07
1.54765e-06
5.86258e-08
1.55128e-06
-7.11442e-08
1.5519e-06
1.79488e-07
1.55293e-06
-1.04774e-07
1.55624e-06
2.61223e-07
1.5525e-06
-1.81474e-07
1.55671e-06
2.67809e-07
1.55148e-06
-1.60566e-07
1.55545e-06
1.97808e-07
1.54975e-06
-9.49326e-08
1.55391e-06
1.43179e-07
1.54687e-06
-4.66557e-08
1.55101e-06
1.11451e-07
1.54032e-06
-4.84403e-09
1.54309e-06
1.15184e-07
8.59432e-08
1.52399e-06
1.61569e-06
-6.24125e-08
1.6217e-06
-4.7288e-08
1.61951e-06
8.85661e-09
1.62231e-06
-1.27382e-07
1.62095e-06
5.99829e-08
1.62272e-06
-7.29068e-08
1.62471e-06
1.77493e-07
1.62502e-06
-1.05084e-07
1.62946e-06
2.56782e-07
1.62553e-06
-1.77544e-07
1.63088e-06
2.62458e-07
1.62513e-06
-1.54814e-07
1.63037e-06
1.92574e-07
1.6238e-06
-8.83651e-08
1.62924e-06
1.37735e-07
1.62107e-06
-3.8485e-08
1.62648e-06
1.06045e-07
1.61452e-06
7.10941e-09
1.61816e-06
1.11551e-07
1.03738e-07
1.60036e-06
1.69422e-06
-5.90587e-08
1.69812e-06
-5.1188e-08
1.69727e-06
9.71054e-09
1.69849e-06
-1.28607e-07
1.69792e-06
6.05564e-08
1.69849e-06
-7.34827e-08
1.70107e-06
1.74918e-07
1.70094e-06
-1.04955e-07
1.70607e-06
2.51656e-07
1.70194e-06
-1.73418e-07
1.70824e-06
2.56156e-07
1.702e-06
-1.48571e-07
1.70841e-06
1.8616e-07
1.70102e-06
-8.097e-08
1.70774e-06
1.31012e-07
1.6985e-06
-2.92444e-08
1.70501e-06
9.95404e-08
1.69216e-06
1.99559e-08
1.69608e-06
1.07627e-07
1.19646e-07
1.68018e-06
1.77638e-06
-5.67185e-08
1.77885e-06
-5.36564e-08
1.77871e-06
9.84646e-09
1.77909e-06
-1.28987e-07
1.77885e-06
6.0798e-08
1.77883e-06
-7.34585e-08
1.78163e-06
1.7212e-07
1.78116e-06
-1.04486e-07
1.78678e-06
2.46032e-07
1.78234e-06
-1.68981e-07
1.78954e-06
2.48964e-07
1.78272e-06
-1.41753e-07
1.79031e-06
1.78563e-07
1.78204e-06
-7.26993e-08
1.79003e-06
1.23027e-07
1.7798e-06
-1.90121e-08
1.78712e-06
9.22108e-08
1.77384e-06
3.32407e-08
1.77743e-06
1.04036e-07
1.332e-07
1.76388e-06
1.86206e-06
-5.50334e-08
1.86379e-06
-5.5386e-08
1.8639e-06
9.73809e-09
1.86397e-06
-1.29053e-07
1.86393e-06
6.08365e-08
1.86369e-06
-7.32148e-08
1.86665e-06
1.69156e-07
1.86585e-06
-1.03691e-07
1.87191e-06
2.39978e-07
1.86703e-06
-1.64098e-07
1.8751e-06
2.40894e-07
1.86758e-06
-1.34232e-07
1.87638e-06
1.69762e-07
1.86717e-06
-6.34944e-08
1.87634e-06
1.13855e-07
1.86526e-06
-7.93278e-09
1.87303e-06
8.44423e-08
1.85985e-06
4.6428e-08
1.86248e-06
1.01405e-07
1.4407e-07
1.85161e-06
1.95147e-06
-5.36618e-08
1.95292e-06
-5.68412e-08
1.95302e-06
9.64562e-09
1.95304e-06
-1.29079e-07
1.95323e-06
6.06476e-08
1.95297e-06
-7.29539e-08
1.95616e-06
1.65967e-07
1.95503e-06
-1.02561e-07
1.96151e-06
2.33495e-07
1.95606e-06
-1.58649e-07
1.96503e-06
2.3193e-07
1.95668e-06
-1.25885e-07
1.96669e-06
1.59752e-07
1.95653e-06
-5.33386e-08
1.96674e-06
1.0365e-07
1.95506e-06
3.74007e-09
1.96278e-06
7.67259e-08
1.95027e-06
5.89384e-08
1.9514e-06
1.00275e-07
1.52129e-07
1.94334e-06
2.04491e-06
-5.2387e-08
2.04634e-06
-5.82689e-08
2.04631e-06
9.67983e-09
2.04639e-06
-1.29157e-07
2.04684e-06
6.01916e-08
2.04664e-06
-7.27501e-08
2.05013e-06
1.62478e-07
2.04864e-06
-1.01073e-07
2.05559e-06
2.26542e-07
2.04948e-06
-1.52537e-07
2.05937e-06
2.2204e-07
2.05011e-06
-1.16622e-07
2.06129e-06
1.48567e-07
2.05024e-06
-4.22909e-08
2.06122e-06
9.26768e-08
2.04933e-06
1.56233e-08
2.05643e-06
6.96265e-08
2.04515e-06
7.02216e-08
2.04446e-06
1.00964e-07
1.57528e-07
2.03906e-06
2.14271e-06
-5.10983e-08
2.14423e-06
-5.97908e-08
2.14404e-06
9.87448e-09
2.14418e-06
-1.29294e-07
2.14491e-06
5.94566e-08
2.14476e-06
-7.25965e-08
2.14861e-06
1.58628e-07
2.14673e-06
-9.91943e-08
2.15422e-06
2.19046e-07
2.14737e-06
-1.45687e-07
2.15823e-06
2.11186e-07
2.14801e-06
-1.06403e-07
2.16028e-06
1.36295e-07
2.1485e-06
-3.05072e-08
2.15987e-06
8.13014e-08
2.14826e-06
2.72394e-08
2.15417e-06
6.37103e-08
2.14455e-06
7.98447e-08
2.142e-06
1.03511e-07
1.60686e-07
2.13885e-06
2.24513e-06
-4.97438e-08
2.24682e-06
-6.14722e-08
2.24646e-06
1.02283e-08
2.24663e-06
-1.29462e-07
2.24764e-06
5.84496e-08
2.24748e-06
-7.24427e-08
2.25175e-06
1.54366e-07
2.24943e-06
-9.68788e-08
2.25756e-06
2.1092e-07
2.24991e-06
-1.38046e-07
2.26176e-06
1.9934e-07
2.25061e-06
-9.52474e-08
2.26381e-06
1.23087e-07
2.25155e-06
-1.82484e-08
2.26288e-06
6.99738e-08
2.25205e-06
3.80717e-08
2.25628e-06
5.9477e-08
2.24859e-06
8.75416e-08
2.24438e-06
1.07713e-07
1.6219e-07
2.24288e-06
2.35243e-06
-4.82975e-08
2.35431e-06
-6.33519e-08
2.35381e-06
1.07242e-08
2.35398e-06
-1.29631e-07
2.35526e-06
5.71754e-08
2.35503e-06
-7.22186e-08
2.35976e-06
1.49642e-07
2.35695e-06
-9.40709e-08
2.3658e-06
2.02071e-07
2.35733e-06
-1.29577e-07
2.37017e-06
1.86497e-07
2.35817e-06
-8.32438e-08
2.37208e-06
1.09173e-07
2.35971e-06
-5.88103e-09
2.37048e-06
5.92036e-08
2.36093e-06
4.76282e-08
2.36313e-06
5.7278e-08
2.3574e-06
9.3268e-08
2.35195e-06
1.13162e-07
1.62699e-07
2.35144e-06
2.46484e-06
-4.67457e-08
2.46694e-06
-6.545e-08
2.46633e-06
1.13352e-08
2.46647e-06
-1.29765e-07
2.46802e-06
5.56208e-08
2.46764e-06
-7.18439e-08
2.47289e-06
1.44397e-07
2.46953e-06
-9.07064e-08
2.47918e-06
1.92419e-07
2.46987e-06
-1.20273e-07
2.48367e-06
1.727e-07
2.47099e-06
-7.05633e-08
2.48529e-06
9.48727e-08
2.47327e-06
6.13857e-09
2.48296e-06
4.95144e-08
2.47508e-06
5.55115e-08
2.4751e-06
5.72538e-08
2.47114e-06
9.72282e-08
2.46502e-06
1.19282e-07
1.62855e-07
2.46487e-06
2.58263e-06
-4.50829e-08
2.58495e-06
-6.77686e-08
2.58426e-06
1.20246e-08
2.58432e-06
-1.29824e-07
2.58619e-06
5.37463e-08
2.58558e-06
-7.12293e-08
2.59142e-06
1.38558e-07
2.58743e-06
-8.67183e-08
2.59795e-06
1.81903e-07
2.58784e-06
-1.10166e-07
2.60248e-06
1.58059e-07
2.58939e-06
-5.7469e-08
2.60367e-06
8.05913e-08
2.59251e-06
1.72961e-08
2.60064e-06
4.13862e-08
2.59468e-06
6.14709e-08
2.59263e-06
5.93019e-08
2.59001e-06
9.98445e-08
2.58386e-06
1.25438e-07
1.632e-07
2.58351e-06
2.70606e-06
-4.33101e-08
2.70858e-06
-7.02908e-08
2.70786e-06
1.2741e-08
2.70779e-06
-1.29752e-07
2.71005e-06
5.14835e-08
2.7091e-06
-7.02775e-08
2.71561e-06
1.32046e-07
2.71094e-06
-8.20474e-08
2.72234e-06
1.70499e-07
2.71152e-06
-9.93452e-08
2.72681e-06
1.42769e-07
2.71366e-06
-4.43172e-08
2.72747e-06
6.67845e-08
2.71766e-06
2.71073e-08
2.72387e-06
3.51689e-08
2.7199e-06
6.54503e-08
2.71612e-06
6.30818e-08
2.71429e-06
1.01671e-07
2.70866e-06
1.3107e-07
1.64085e-07
2.70777e-06
2.83539e-06
-4.14336e-08
2.83808e-06
-7.29792e-08
2.83741e-06
1.34136e-08
2.83713e-06
-1.29478e-07
2.83988e-06
4.87389e-08
2.83849e-06
-6.88862e-08
2.84575e-06
1.24781e-07
2.84036e-06
-7.66581e-08
2.85262e-06
1.58242e-07
2.84125e-06
-8.79756e-08
2.8569e-06
1.2712e-07
2.84412e-06
-3.15398e-08
2.85699e-06
5.3917e-08
2.84893e-06
3.51686e-08
2.85306e-06
3.10353e-08
2.85091e-06
6.76007e-08
2.8459e-06
6.80936e-08
2.84432e-06
1.03251e-07
2.83957e-06
1.35821e-07
1.65617e-07
2.83804e-06
2.97093e-06
-3.94642e-08
2.97372e-06
-7.57757e-08
2.97319e-06
1.39476e-08
2.97262e-06
-1.28912e-07
2.97596e-06
4.54008e-08
2.97403e-06
-6.69575e-08
2.98211e-06
1.16702e-07
2.97601e-06
-7.0561e-08
2.98902e-06
1.45239e-07
2.97735e-06
-7.63116e-08
2.99299e-06
1.11484e-07
2.98106e-06
-1.96074e-08
2.99256e-06
4.24136e-08
2.98652e-06
4.12127e-08
2.98861e-06
2.89449e-08
2.98795e-06
6.82548e-08
2.98229e-06
7.37598e-08
2.98052e-06
1.05015e-07
2.97673e-06
1.39614e-07
1.67673e-07
2.97467e-06
3.11296e-06
-3.74168e-08
3.11578e-06
-7.86007e-08
3.11551e-06
1.42232e-08
3.11455e-06
-1.27949e-07
3.11859e-06
4.13516e-08
3.11605e-06
-6.44127e-08
3.12496e-06
1.07788e-07
3.11824e-06
-6.38349e-08
3.13179e-06
1.31685e-07
3.12017e-06
-6.4693e-08
3.13538e-06
9.62807e-08
3.12474e-06
-8.97388e-09
3.13456e-06
3.25996e-08
3.13061e-06
4.51577e-08
3.13092e-06
2.86327e-08
3.13133e-06
6.78454e-08
3.12561e-06
7.9487e-08
3.12337e-06
1.07247e-07
3.1203e-06
1.42688e-07
1.69963e-07
3.11801e-06
3.2618e-06
-3.53089e-08
3.26456e-06
-8.13551e-08
3.26468e-06
1.40984e-08
3.26321e-06
-1.26482e-07
3.26808e-06
3.64839e-08
3.26488e-06
-6.12107e-08
3.27459e-06
9.80815e-08
3.2674e-06
-5.66442e-08
3.28121e-06
1.17869e-07
3.27004e-06
-5.35189e-08
3.28439e-06
8.1927e-08
3.27542e-06
-1.58979e-12
3.2834e-06
2.46216e-08
3.28142e-06
4.71391e-08
3.28042e-06
2.96273e-08
3.28149e-06
6.67801e-08
3.27626e-06
8.47183e-08
3.27345e-06
1.10051e-07
3.27054e-06
1.45603e-07
1.72175e-07
3.26832e-06
3.41778e-06
-3.31604e-08
3.42035e-06
-8.3923e-08
3.42103e-06
1.34164e-08
3.41896e-06
-1.24412e-07
3.42473e-06
3.07214e-08
3.42089e-06
-5.73717e-08
3.43126e-06
8.77079e-08
3.42386e-06
-4.9244e-08
3.43758e-06
1.04147e-07
3.42726e-06
-4.31999e-08
3.44042e-06
6.8767e-08
3.4333e-06
7.1199e-09
3.43954e-06
1.83848e-08
3.4392e-06
4.74816e-08
3.43751e-06
3.13098e-08
3.43901e-06
6.52877e-08
3.43474e-06
8.89887e-08
3.43147e-06
1.13321e-07
3.42814e-06
1.48932e-07
1.74479e-07
3.42583e-06
3.58124e-06
-3.09914e-08
3.5835e-06
-8.61802e-08
3.58489e-06
1.20214e-08
3.58215e-06
-1.21672e-07
3.58883e-06
2.40456e-08
3.58446e-06
-5.30034e-08
3.59528e-06
7.68886e-08
3.588e-06
-4.1966e-08
3.60125e-06
9.09023e-08
3.59215e-06
-3.40989e-08
3.6039e-06
5.70162e-08
3.59861e-06
1.24065e-08
3.60342e-06
1.3578e-08
3.60432e-06
4.65774e-08
3.60259e-06
3.30378e-08
3.60423e-06
6.36502e-08
3.60087e-06
9.23451e-08
3.59731e-06
1.16885e-07
3.59453e-06
1.51711e-07
1.7852e-07
3.59049e-06
3.75253e-06
-2.88206e-08
3.75436e-06
-8.80031e-08
3.7566e-06
9.77943e-09
3.75318e-06
-1.18254e-07
3.7607e-06
1.65238e-08
3.75602e-06
-4.83184e-08
3.76697e-06
6.59358e-08
3.76019e-06
-3.51843e-08
3.7726e-06
7.84958e-08
3.76496e-06
-2.64666e-08
3.77526e-06
4.67158e-08
3.77164e-06
1.60276e-08
3.77537e-06
9.85289e-09
3.77719e-06
4.47515e-08
3.77552e-06
3.47129e-08
3.77519e-06
6.3981e-08
3.77139e-06
9.61431e-08
3.76772e-06
1.20557e-07
3.76751e-06
1.5192e-07
1.8406e-07
3.76197e-06
3.93203e-06
-2.66641e-08
3.93331e-06
-8.92841e-08
3.93648e-06
6.60818e-09
3.93247e-06
-1.14241e-07
3.94066e-06
8.33103e-09
3.93598e-06
-4.36404e-08
3.94669e-06
5.52296e-08
3.94077e-06
-2.92584e-08
3.95208e-06
6.71825e-08
3.94596e-06
-2.03526e-08
3.95496e-06
3.77233e-08
3.95273e-06
1.82567e-08
3.95551e-06
7.07015e-09
3.9575e-06
4.27614e-08
3.95264e-06
3.95778e-08
3.94958e-06
6.70375e-08
3.94569e-06
1.00036e-07
3.94198e-06
1.24262e-07
3.94136e-06
1.52543e-07
1.85194e-07
3.94022e-06
4.12012e-06
-2.45319e-08
4.12079e-06
-8.99524e-08
4.12488e-06
2.51359e-09
4.12047e-06
-1.09825e-07
4.12905e-06
-2.58188e-10
4.12478e-06
-3.93637e-08
4.13485e-06
4.51568e-08
4.13005e-06
-2.44573e-08
4.14016e-06
5.70713e-08
4.13543e-06
-1.56174e-08
4.1433e-06
2.9846e-08
4.14191e-06
1.96524e-08
4.14298e-06
5.99858e-09
4.14186e-06
4.38781e-08
4.13459e-06
4.68451e-08
4.13133e-06
7.02975e-08
4.12811e-06
1.0326e-07
4.12463e-06
1.27741e-07
4.12339e-06
1.53788e-07
1.82835e-07
4.12575e-06
4.3172e-06
-2.24258e-08
4.31724e-06
-8.99957e-08
4.32213e-06
-2.37585e-09
4.31763e-06
-1.05325e-07
4.32626e-06
-8.88471e-09
4.3228e-06
-3.59063e-08
4.33191e-06
3.6047e-08
4.32834e-06
-2.08914e-08
4.33728e-06
4.81362e-08
4.33364e-06
-1.19807e-08
4.34015e-06
2.33386e-08
4.33813e-06
2.16661e-08
4.33518e-06
8.94871e-09
4.33284e-06
4.62233e-08
4.32596e-06
5.37199e-08
4.32276e-06
7.35038e-08
4.32026e-06
1.0576e-07
4.31734e-06
1.30655e-07
4.31635e-06
1.54786e-07
1.79248e-07
4.31993e-06
4.52369e-06
-2.03373e-08
4.52316e-06
-8.94742e-08
4.52858e-06
-7.79256e-09
4.52441e-06
-1.01154e-07
4.53269e-06
-1.71663e-08
4.53038e-06
-3.35987e-08
4.53838e-06
2.80517e-08
4.5359e-06
-1.84076e-08
4.54377e-06
4.0261e-08
4.54052e-06
-8.73199e-09
4.54457e-06
1.92862e-08
4.54093e-06
2.53069e-08
4.53583e-06
1.4055e-08
4.53354e-06
4.85099e-08
4.5275e-06
5.9764e-08
4.52425e-06
7.67509e-08
4.52235e-06
1.07664e-07
4.52012e-06
1.32883e-07
4.52002e-06
1.54881e-07
1.75922e-07
4.52335e-06
4.74003e-06
-1.8248e-08
4.73908e-06
-8.85272e-08
4.74462e-06
-1.33352e-08
4.74122e-06
-9.77517e-08
4.74885e-06
-2.47991e-08
4.74781e-06
-3.25567e-08
4.75479e-06
2.10677e-08
4.75292e-06
-1.65372e-08
4.75967e-06
3.35173e-08
4.75571e-06
-4.77001e-09
4.75662e-06
1.8373e-08
4.75243e-06
2.9498e-08
4.74682e-06
1.96633e-08
4.74463e-06
5.06999e-08
4.7394e-06
6.49922e-08
4.73603e-06
8.01266e-08
4.7346e-06
1.09086e-07
4.73318e-06
1.34309e-07
4.73383e-06
1.54225e-07
1.73053e-07
4.7367e-06
4.96668e-06
-1.61318e-08
4.96551e-06
-8.73595e-08
4.97068e-06
-1.85034e-08
4.96843e-06
-9.5496e-08
4.97527e-06
-3.16428e-08
4.97531e-06
-3.25988e-08
4.98159e-06
1.47917e-08
4.97957e-06
-1.4516e-08
4.9846e-06
2.84828e-08
4.97953e-06
2.99159e-10
4.97832e-06
1.9585e-08
4.97415e-06
3.36729e-08
4.96857e-06
2.52423e-08
4.96648e-06
5.27863e-08
4.96194e-06
6.95348e-08
4.95844e-06
8.36289e-08
4.95742e-06
1.10102e-07
4.95685e-06
1.34874e-07
4.95776e-06
1.53313e-07
1.70205e-07
4.96061e-06
5.20414e-06
-1.39592e-08
5.20301e-06
-8.62245e-08
5.20726e-06
-2.27531e-08
5.20635e-06
-9.45909e-08
5.21252e-06
-3.7808e-08
5.21315e-06
-3.32272e-08
5.21894e-06
8.99456e-09
5.21599e-06
-1.15634e-08
5.21873e-06
2.57406e-08
5.21322e-06
5.81312e-09
5.21089e-06
2.19146e-08
5.20685e-06
3.7715e-08
5.20147e-06
3.06249e-08
5.19942e-06
5.4835e-08
5.19549e-06
7.34593e-08
5.19195e-06
8.71728e-08
5.19128e-06
1.1077e-07
5.19142e-06
1.34736e-07
5.19251e-06
1.52224e-07
1.67202e-07
5.19551e-06
5.45293e-06
-1.17045e-08
5.4521e-06
-8.53889e-08
5.45499e-06
-2.56467e-08
5.45527e-06
-9.48696e-08
5.46111e-06
-4.3651e-08
5.46163e-06
-3.37434e-08
5.46672e-06
3.90585e-09
5.46274e-06
-7.58117e-09
5.46317e-06
2.53026e-08
5.45782e-06
1.11656e-08
5.45498e-06
2.47592e-08
5.45116e-06
4.15353e-08
5.44592e-06
3.58624e-08
5.44386e-06
5.68947e-08
5.44052e-06
7.6802e-08
5.43708e-06
9.06103e-08
5.43664e-06
1.11206e-07
5.43731e-06
1.34069e-07
5.4387e-06
1.50835e-07
1.64037e-07
5.44187e-06
5.71361e-06
-9.3552e-09
5.7133e-06
-8.50779e-08
5.71469e-06
-2.70426e-08
5.71547e-06
-9.5641e-08
5.72144e-06
-4.96235e-08
5.72111e-06
-3.34162e-08
5.72499e-06
2.4661e-11
5.72061e-06
-3.2029e-09
5.71926e-06
2.66567e-08
5.71409e-06
1.6331e-08
5.71115e-06
2.76999e-08
5.70758e-06
4.51084e-08
5.70243e-06
4.10129e-08
5.7003e-06
5.90256e-08
5.69751e-06
7.95936e-08
5.69436e-06
9.37602e-08
5.69402e-06
1.11545e-07
5.69509e-06
1.32993e-07
5.69689e-06
1.49039e-07
1.60715e-07
5.70021e-06
5.98676e-06
-6.9177e-09
5.98713e-06
-8.54523e-08
5.98718e-06
-2.70899e-08
5.98738e-06
-9.58465e-08
5.99369e-06
-5.59335e-08
5.99221e-06
-3.19358e-08
5.9945e-06
-2.26542e-09
5.99037e-06
9.326e-10
5.98792e-06
2.91029e-08
5.98282e-06
2.14316e-08
5.97992e-06
3.06043e-08
5.97661e-06
4.841e-08
5.97155e-06
4.60776e-08
5.96928e-06
6.12971e-08
5.96699e-06
8.18808e-08
5.96431e-06
9.6445e-08
5.96398e-06
1.11873e-07
5.96536e-06
1.3161e-07
5.9676e-06
1.46797e-07
1.57205e-07
5.97111e-06
6.27299e-06
-4.42272e-09
6.27411e-06
-8.65651e-08
6.2732e-06
-2.61818e-08
6.27172e-06
-9.43661e-08
6.27814e-06
-6.23511e-08
6.27578e-06
-2.95779e-08
6.27636e-06
-2.85054e-09
6.2727e-06
4.59693e-09
6.26983e-06
3.19725e-08
6.26468e-06
2.65797e-08
6.26179e-06
3.34922e-08
6.2588e-06
5.14032e-08
6.25386e-06
5.10183e-08
6.25139e-06
6.37623e-08
6.24954e-06
8.37335e-08
6.24746e-06
9.85224e-08
6.24715e-06
1.1219e-07
6.24874e-06
1.30013e-07
6.25141e-06
1.44132e-07
1.53459e-07
6.25515e-06
6.57297e-06
-1.92123e-09
6.57476e-06
-8.83579e-08
6.57342e-06
-2.48453e-08
6.56946e-06
-9.04006e-08
6.57542e-06
-6.83121e-08
6.57273e-06
-2.68892e-08
6.57167e-06
-1.79446e-09
6.56846e-06
7.81434e-09
6.56559e-06
3.4842e-08
6.56036e-06
3.18045e-08
6.55738e-06
3.64789e-08
6.5547e-06
5.40785e-08
6.54997e-06
5.57545e-08
6.54729e-06
6.64373e-08
6.54578e-06
8.52409e-08
6.5444e-06
9.991e-08
6.54415e-06
1.12432e-07
6.5459e-06
1.2827e-07
6.54891e-06
1.41115e-07
1.49441e-07
6.55293e-06
6.88735e-06
5.1634e-10
6.88962e-06
-9.06223e-08
6.88847e-06
-2.36943e-08
6.88171e-06
-8.3648e-08
6.88641e-06
-7.30075e-08
6.88398e-06
-2.44555e-08
6.88136e-06
8.21131e-10
6.87843e-06
1.07465e-08
6.87581e-06
3.74626e-08
6.87053e-06
3.70763e-08
6.86733e-06
3.9682e-08
6.86493e-06
5.64812e-08
6.86049e-06
6.01913e-08
6.85765e-06
6.92844e-08
6.8564e-06
8.64823e-08
6.8557e-06
1.00614e-07
6.85564e-06
1.1249e-07
6.85751e-06
1.26404e-07
6.86079e-06
1.37829e-07
1.4515e-07
6.86508e-06
7.21685e-06
2.80611e-09
7.21922e-06
-9.29992e-08
7.21889e-06
-2.33604e-08
7.20949e-06
-7.42504e-08
7.21218e-06
-7.56914e-08
7.21021e-06
-2.24911e-08
7.20626e-06
4.76862e-09
7.20331e-06
1.37029e-08
7.20108e-06
3.96878e-08
7.19588e-06
4.22748e-08
7.19235e-06
4.3211e-08
7.19015e-06
5.86845e-08
7.1861e-06
6.42439e-08
7.18315e-06
7.22306e-08
7.18214e-06
8.74905e-08
7.182e-06
1.00755e-07
7.18226e-06
1.12235e-07
7.18427e-06
1.24393e-07
7.18775e-06
1.34345e-07
1.4062e-07
7.19228e-06
7.56217e-06
4.86025e-09
7.56423e-06
-9.50584e-08
7.56518e-06
-2.43143e-08
7.55373e-06
-6.27956e-08
7.55381e-06
-7.57724e-08
7.55222e-06
-2.08951e-08
7.54724e-06
9.74742e-09
7.54388e-06
1.70596e-08
7.54204e-06
4.15272e-08
7.5371e-06
4.72198e-08
7.53319e-06
4.71153e-08
7.53108e-06
6.07993e-08
7.52749e-06
6.78331e-08
7.52454e-06
7.51819e-08
7.52376e-06
8.8265e-08
7.524e-06
1.00517e-07
7.52469e-06
1.11544e-07
7.5269e-06
1.22184e-07
7.53054e-06
1.307e-07
1.35905e-07
7.53526e-06
7.92408e-06
6.5946e-09
7.92527e-06
-9.62475e-08
7.92795e-06
-2.70027e-08
7.91517e-06
-5.00126e-08
7.91229e-06
-7.28928e-08
7.91076e-06
-1.93673e-08
7.90508e-06
1.54332e-08
7.90097e-06
2.11643e-08
7.89939e-06
4.31094e-08
7.89487e-06
5.1743e-08
7.89061e-06
5.13742e-08
7.88847e-06
6.29358e-08
7.88539e-06
7.09205e-08
7.88256e-06
7.80026e-08
7.88198e-06
8.88475e-08
7.88247e-06
1.00024e-07
7.88365e-06
1.10369e-07
7.88612e-06
1.19711e-07
7.88992e-06
1.26901e-07
1.31052e-07
7.89477e-06
8.30333e-06
7.94713e-09
8.30324e-06
-9.61581e-08
8.30764e-06
-3.13991e-08
8.29445e-06
-3.68312e-08
8.28846e-06
-6.68967e-08
8.28663e-06
-1.7538e-08
8.28055e-06
2.15143e-08
8.27549e-06
2.62257e-08
8.27392e-06
4.46732e-08
8.26992e-06
5.57457e-08
8.26541e-06
5.58872e-08
8.26315e-06
6.51899e-08
8.26056e-06
7.35132e-08
8.25803e-06
8.05362e-08
8.25757e-06
8.93044e-08
8.25826e-06
9.93344e-08
8.25989e-06
1.08734e-07
8.26269e-06
1.16918e-07
8.26666e-06
1.22928e-07
1.26089e-07
8.27162e-06
8.70072e-06
8.88825e-09
8.69922e-06
-9.46527e-08
8.70458e-06
-3.67684e-08
8.69217e-06
-2.44185e-08
8.68311e-06
-5.7837e-08
8.68054e-06
-1.49701e-08
8.67437e-06
2.76848e-08
8.66836e-06
3.22411e-08
8.66648e-06
4.65518e-08
8.66302e-06
5.92087e-08
8.65841e-06
6.04935e-08
8.65596e-06
6.764e-08
8.65381e-06
7.56605e-08
8.6517e-06
8.26462e-08
8.65134e-06
8.96687e-08
8.6522e-06
9.84693e-08
8.65424e-06
1.06699e-07
8.65739e-06
1.1377e-07
8.66158e-06
1.18739e-07
1.21017e-07
8.66665e-06
9.11708e-06
9.42687e-09
9.11402e-06
-9.15889e-08
9.11982e-06
-4.25682e-08
9.10852e-06
-1.3125e-08
9.09704e-06
-4.63503e-08
9.09335e-06
-1.12886e-08
9.0873e-06
3.37361e-08
9.08049e-06
3.90584e-08
9.07799e-06
4.90452e-08
9.07499e-06
6.22105e-08
9.07048e-06
6.50059e-08
9.06778e-06
7.03383e-08
9.066e-06
7.74441e-08
9.0644e-06
8.42422e-08
9.06416e-06
8.99093e-08
9.0652e-06
9.7432e-08
9.06756e-06
1.04341e-07
9.07105e-06
1.10273e-07
9.0755e-06
1.14294e-07
1.15814e-07
9.0807e-06
9.55327e-06
9.61434e-09
9.54836e-06
-8.66775e-08
9.55393e-06
-4.81327e-08
9.54423e-06
-3.43073e-09
9.53093e-06
-3.30456e-08
9.52594e-06
-6.29914e-09
9.52012e-06
3.95534e-08
9.51272e-06
4.64569e-08
9.50946e-06
5.2308e-08
9.50674e-06
6.49295e-08
9.50248e-06
6.9266e-08
9.49954e-06
7.3274e-08
9.49801e-06
7.89828e-08
9.49696e-06
8.52913e-08
9.49693e-06
8.99306e-08
9.49816e-06
9.62057e-08
9.50077e-06
1.01737e-07
9.50457e-06
1.06467e-07
9.5093e-06
1.0957e-07
1.10445e-07
9.51466e-06
1.00102e-05
9.54477e-09
1.00035e-05
-7.99806e-08
1.0008e-05
-5.26665e-08
1e-05
4.61009e-09
9.98554e-06
-1.85847e-08
9.97921e-06
3.26839e-11
9.97366e-06
4.50975e-08
9.96595e-06
5.41691e-08
9.96187e-06
5.63878e-08
9.95925e-06
6.75553e-08
9.95531e-06
7.32061e-08
9.95222e-06
7.63631e-08
9.95079e-06
8.04087e-08
9.95025e-06
8.58294e-08
9.95058e-06
8.96034e-08
9.95203e-06
9.47518e-08
9.95483e-06
9.89363e-08
9.95889e-06
1.02416e-07
9.96388e-06
1.04576e-07
1.04876e-07
9.96945e-06
1.04888e-05
9.34113e-09
1.04808e-05
-7.19623e-08
1.04832e-05
-5.50672e-08
1.04768e-05
1.1049e-08
1.04618e-05
-3.61599e-09
1.04542e-05
7.62481e-09
1.04488e-05
5.04921e-08
1.04411e-05
6.19232e-08
1.04362e-05
6.12516e-08
1.04335e-05
7.02236e-08
1.04299e-05
7.68449e-08
1.04268e-05
7.94894e-08
1.04254e-05
8.18229e-08
1.04252e-05
8.59521e-08
1.0426e-05
8.88275e-08
1.04278e-05
9.30056e-08
1.04308e-05
9.59457e-08
1.0435e-05
9.81784e-08
1.04402e-05
9.93548e-08
9.90884e-08
1.0446e-05
1.09902e-05
9.13193e-09
1.09818e-05
-6.3499e-08
1.09808e-05
-5.40982e-08
1.09755e-05
1.63595e-08
1.09609e-05
1.09724e-08
1.09521e-05
1.64315e-08
1.09466e-05
5.5938e-08
1.0939e-05
6.95456e-08
1.09335e-05
6.6766e-08
1.09307e-05
7.30481e-08
1.09273e-05
8.02067e-08
1.09242e-05
8.25775e-08
1.09228e-05
8.32697e-08
1.0923e-05
8.57749e-08
1.09242e-05
8.75955e-08
1.09263e-05
9.08727e-08
1.09295e-05
9.27289e-08
1.09339e-05
9.37836e-08
1.09393e-05
9.39569e-08
9.30907e-08
1.09453e-05
1.15154e-05
9.05836e-09
1.15056e-05
-5.3698e-08
1.15026e-05
-5.11105e-08
1.14977e-05
2.13199e-08
1.14838e-05
2.48308e-08
1.14739e-05
2.63366e-08
1.14683e-05
6.16023e-08
1.14608e-05
7.70234e-08
1.14548e-05
7.27731e-08
1.14517e-05
7.61311e-08
1.14486e-05
8.32536e-08
1.14456e-05
8.5608e-08
1.14441e-05
8.475e-08
1.14445e-05
8.53747e-08
1.14461e-05
8.6031e-08
1.14487e-05
8.8238e-08
1.14522e-05
8.92221e-08
1.14568e-05
8.92282e-08
1.14623e-05
8.84225e-08
8.69134e-08
1.14685e-05
1.20656e-05
9.24574e-09
1.20548e-05
-4.28608e-08
1.20492e-05
-4.55096e-08
1.20447e-05
2.58388e-08
1.20318e-05
3.77306e-08
1.2021e-05
3.70989e-08
1.20149e-05
6.77388e-08
1.20075e-05
8.44177e-08
1.20011e-05
7.92054e-08
1.19977e-05
7.95226e-08
1.1995e-05
8.59412e-08
1.1992e-05
8.85389e-08
1.19905e-05
8.62756e-08
1.19911e-05
8.47964e-08
1.19928e-05
8.43116e-08
1.1996e-05
8.50281e-08
1.19999e-05
8.53539e-08
1.20046e-05
8.44752e-08
1.20103e-05
8.27659e-08
8.05864e-08
1.20166e-05
1.2642e-05
9.80678e-09
1.26306e-05
-3.13908e-08
1.26225e-05
-3.74166e-08
1.26176e-05
3.06938e-08
1.26058e-05
4.95226e-08
1.25946e-05
4.83476e-08
1.25878e-05
7.45325e-08
1.25803e-05
9.18687e-08
1.25735e-05
8.60762e-08
1.25697e-05
8.32701e-08
1.25673e-05
8.83013e-08
1.25647e-05
9.12097e-08
1.25631e-05
8.78813e-08
1.25637e-05
8.41703e-08
1.25656e-05
8.2414e-08
1.25693e-05
8.13606e-08
1.25736e-05
8.10319e-08
1.25786e-05
7.94666e-08
1.25844e-05
7.69686e-08
7.41181e-08
1.25909e-05
1.32459e-05
1.07984e-08
1.32346e-05
-2.00982e-08
1.32239e-05
-2.66327e-08
1.3218e-05
3.65294e-08
1.32071e-05
6.04752e-08
1.31958e-05
5.95949e-08
1.31883e-05
8.21054e-08
1.31806e-05
9.95119e-08
1.31732e-05
9.34636e-08
1.3169e-05
8.74684e-08
1.31669e-05
9.04472e-08
1.31647e-05
9.34135e-08
1.3163e-05
8.95568e-08
1.31635e-05
8.37198e-08
1.31658e-05
8.01146e-08
1.31696e-05
7.7559e-08
1.31745e-05
7.61107e-08
1.31798e-05
7.41893e-08
1.31858e-05
7.09634e-08
6.74791e-08
1.31924e-05
1.38787e-05
1.22201e-08
1.38675e-05
-8.80973e-09
1.38549e-05
-1.40434e-08
1.38475e-05
4.38564e-08
1.38369e-05
7.10787e-08
1.38259e-05
7.06488e-08
1.38177e-05
9.03211e-08
1.38097e-05
1.07473e-07
1.38017e-05
1.01463e-07
1.37969e-05
9.22885e-08
1.37948e-05
9.25563e-08
1.37931e-05
9.50594e-08
1.37915e-05
9.11482e-08
1.37917e-05
8.35279e-08
1.37944e-05
7.74823e-08
1.37982e-05
7.37508e-08
1.38038e-05
7.04844e-08
1.38093e-05
6.87033e-08
1.38156e-05
6.4649e-08
6.05648e-08
1.38225e-05
1.45419e-05
1.40089e-08
1.45303e-05
2.81248e-09
1.45169e-05
-7.15829e-10
1.45077e-05
5.30923e-08
1.4497e-05
8.1817e-08
1.44859e-05
8.17249e-08
1.44773e-05
9.88737e-08
1.4469e-05
1.15828e-07
1.44603e-05
1.10115e-07
1.44547e-05
9.79405e-08
1.44523e-05
9.48739e-08
1.44512e-05
9.62328e-08
1.44499e-05
9.23948e-08
1.44499e-05
8.35542e-08
1.44524e-05
7.4942e-08
1.44566e-05
6.96061e-08
1.44626e-05
6.44827e-08
1.44685e-05
6.27492e-08
1.44751e-05
5.81138e-08
5.31454e-08
1.44825e-05
1.52368e-05
1.60696e-08
1.52252e-05
1.44087e-08
1.5211e-05
1.35386e-08
1.52001e-05
6.39938e-08
1.51887e-05
9.32149e-08
1.51772e-05
9.31728e-08
1.51685e-05
1.07616e-07
1.51598e-05
1.24519e-07
1.51505e-05
1.19394e-07
1.51438e-05
1.04618e-07
1.5141e-05
9.77096e-08
1.51401e-05
9.71479e-08
1.51394e-05
9.31249e-08
1.51392e-05
8.36852e-08
1.51415e-05
7.27013e-08
1.51461e-05
6.50008e-08
1.51519e-05
5.86795e-08
1.51589e-05
5.57098e-08
1.51657e-05
5.1358e-08
4.54378e-08
1.51734e-05
1.59651e-05
1.83371e-08
1.5953e-05
2.64497e-08
1.59384e-05
2.82032e-08
1.59263e-05
7.60948e-08
1.59137e-05
1.05799e-07
1.59015e-05
1.05296e-07
1.58925e-05
1.16714e-07
1.58836e-05
1.3339e-07
1.58738e-05
1.29219e-07
1.58659e-05
1.12437e-07
1.58622e-05
1.014e-07
1.58613e-05
9.81313e-08
1.5861e-05
9.33696e-08
1.5861e-05
8.37436e-08
1.58629e-05
7.07202e-08
1.58676e-05
6.02951e-08
1.58734e-05
5.29e-08
1.58811e-05
4.80524e-08
1.58892e-05
4.32832e-08
3.82491e-08
1.58963e-05
1.67282e-05
2.07559e-08
1.67154e-05
3.92756e-08
1.67006e-05
4.29826e-08
1.66877e-05
8.90168e-08
1.66738e-05
1.19694e-07
1.66605e-05
1.1854e-07
1.66508e-05
1.26471e-07
1.66418e-05
1.42396e-07
1.66315e-05
1.39502e-07
1.66225e-05
1.21386e-07
1.66177e-05
1.06268e-07
1.66162e-05
9.9561e-08
1.66162e-05
9.33761e-08
1.66164e-05
8.35685e-08
1.66182e-05
6.89005e-08
1.66226e-05
5.59467e-08
1.66288e-05
4.66444e-08
1.66368e-05
4.00616e-08
1.66454e-05
3.46852e-08
2.98636e-08
1.66538e-05
1.75278e-05
2.33055e-08
1.75153e-05
5.17569e-08
1.74993e-05
5.90556e-08
1.74857e-05
1.02617e-07
1.74707e-05
1.34668e-07
1.74559e-05
1.33302e-07
1.74451e-05
1.37295e-07
1.74358e-05
1.51644e-07
1.74252e-05
1.5019e-07
1.74151e-05
1.31411e-07
1.74088e-05
1.12569e-07
1.74066e-05
1.0184e-07
1.74064e-05
9.35468e-08
1.74068e-05
8.3186e-08
1.74085e-05
6.71595e-08
1.74126e-05
5.18825e-08
1.74191e-05
4.01042e-08
1.74274e-05
3.17352e-08
1.74367e-05
2.54326e-08
2.02162e-08
1.74463e-05
1.83656e-05
2.60521e-08
1.83528e-05
6.45323e-08
1.8336e-05
7.58776e-08
1.83219e-05
1.16754e-07
1.8306e-05
1.50485e-07
1.82896e-05
1.49719e-07
1.82772e-05
1.4968e-07
1.82675e-05
1.61403e-07
1.82564e-05
1.61244e-07
1.82453e-05
1.42509e-07
1.82374e-05
1.20492e-07
1.82338e-05
1.05428e-07
1.82331e-05
9.43036e-08
1.82334e-05
8.28495e-08
1.82351e-05
6.54479e-08
1.8239e-05
4.79536e-08
1.82456e-05
3.35103e-08
1.82544e-05
2.29822e-08
1.82645e-05
1.53051e-08
9.47134e-09
1.82753e-05
1.92434e-05
2.9087e-08
1.92306e-05
7.72481e-08
1.92128e-05
9.37594e-08
1.9198e-05
1.31539e-07
1.91816e-05
1.66875e-07
1.91635e-05
1.67784e-07
1.91491e-05
1.64051e-07
1.91384e-05
1.72128e-07
1.91269e-05
1.72741e-07