/*--------------------------------*- C++ -*----------------------------------*\
| =========                 |                                                 |
| \\      /  F ield         | OpenFOAM: The Open Source CFD Toolbox           |
|  \\    /   O peration     | Version:  v2012                                 |
|   \\  /    A nd           | Website:  www.openfoam.com                      |
|    \\/     M anipulation  |                                                 |
\*---------------------------------------------------------------------------*/
FoamFile
{
    version     2.0;
    format      ascii;
    class       surfaceScalarField;
    location    "2.75";
    object      phi;
}
// * * * * * * * * * * * * * * * * * * * * * * * * * * * * * * * * * * * * * //

dimensions      [0 3 -1 0 0 0 0];
oriented        oriented;


internalField   nonuniform List<scalar> 
34900
(
1.1733e-06
4.07892e-08
1.16842e-06
-9.8673e-08
1.17072e-06
7.72029e-08
1.16514e-06
-2.41363e-07
1.17163e-06
2.10035e-07
1.16078e-06
-3.56816e-07
1.17393e-06
4.17078e-07
1.1577e-06
-2.61397e-07
1.17119e-06
3.27113e-07
1.15545e-06
-6.03746e-08
1.16476e-06
1.47451e-07
1.15081e-06
4.04502e-08
1.15867e-06
5.23555e-08
1.14544e-06
4.52823e-08
1.15258e-06
5.02274e-08
1.13881e-06
2.10677e-08
1.14564e-06
5.73609e-08
1.13097e-06
1.70413e-08
1.1333e-06
7.90169e-08
2.16478e-08
1.09545e-06
1.22771e-06
3.73434e-08
1.22457e-06
-9.5532e-08
1.22504e-06
7.67275e-08
1.22079e-06
-2.37116e-07
1.22496e-06
2.05869e-07
1.21545e-06
-3.47311e-07
1.22443e-06
4.08103e-07
1.21198e-06
-2.4895e-07
1.21984e-06
3.19255e-07
1.21136e-06
-5.18917e-08
1.21364e-06
1.4517e-07
1.20947e-06
4.46191e-08
1.20839e-06
5.34305e-08
1.20764e-06
4.6038e-08
1.20186e-06
5.60053e-08
1.20483e-06
1.8095e-08
1.19215e-06
7.00409e-08
1.20083e-06
8.36065e-09
1.17526e-06
1.04588e-07
1.76622e-08
1.17925e-06
1.28345e-06
3.66758e-08
1.28384e-06
-9.59245e-08
1.28172e-06
7.88542e-08
1.27999e-06
-2.35388e-07
1.28101e-06
2.04852e-07
1.27365e-06
-3.39957e-07
1.27845e-06
4.03308e-07
1.27081e-06
-2.41316e-07
1.27261e-06
3.17457e-07
1.27216e-06
-5.14407e-08
1.26762e-06
1.49714e-07
1.27192e-06
4.03102e-08
1.26417e-06
6.11873e-08
1.27036e-06
3.98421e-08
1.25996e-06
6.64048e-08
1.26621e-06
1.18461e-08
1.25419e-06
8.20663e-08
1.25827e-06
4.28113e-09
1.2455e-06
1.17353e-07
3.10777e-08
1.23209e-06
1.34139e-06
3.93849e-08
1.34583e-06
-1.00359e-07
1.34122e-06
8.34653e-08
1.3425e-06
-2.36667e-07
1.34085e-06
2.06496e-07
1.33607e-06
-3.35172e-07
1.3381e-06
4.01275e-07
1.33493e-06
-2.38142e-07
1.33322e-06
3.19163e-07
1.33759e-06
-5.58052e-08
1.33093e-06
1.56373e-07
1.33721e-06
3.40247e-08
1.32964e-06
6.87596e-08
1.33444e-06
3.50458e-08
1.32752e-06
7.33237e-08
1.32964e-06
9.72567e-09
1.32364e-06
8.80628e-08
1.32162e-06
6.3065e-09
1.31608e-06
1.2289e-07
4.84608e-08
1.2987e-06
1.40273e-06
4.50113e-08
1.41005e-06
-1.07677e-07
1.4043e-06
8.92112e-08
1.40759e-06
-2.39961e-07
1.40499e-06
2.09105e-07
1.40184e-06
-3.32031e-07
1.40359e-06
3.99527e-07
1.40266e-06
-2.37208e-07
1.40137e-06
3.20455e-07
1.4062e-06
-6.06361e-08
1.40174e-06
1.6083e-07
1.40605e-06
2.97151e-08
1.40141e-06
7.33945e-08
1.40328e-06
3.31759e-08
1.39956e-06
7.70474e-08
1.39903e-06
1.02527e-08
1.39552e-06
9.15745e-08
1.39123e-06
1.0596e-08
1.38761e-06
1.26508e-07
6.59574e-08
1.37012e-06
1.46861e-06
5.20815e-08
1.47665e-06
-1.15724e-07
1.4716e-06
9.42649e-08
1.4752e-06
-2.43562e-07
1.47327e-06
2.11033e-07
1.47043e-06
-3.29186e-07
1.47343e-06
3.96521e-07
1.47273e-06
-2.36502e-07
1.47389e-06
3.19291e-07
1.47707e-06
-6.38103e-08
1.47577e-06
1.62125e-07
1.47788e-06
2.76053e-08
1.47549e-06
7.5791e-08
1.47579e-06
3.28731e-08
1.47344e-06
7.93991e-08
1.47185e-06
1.18383e-08
1.46933e-06
9.40909e-08
1.46362e-06
1.63057e-08
1.46147e-06
1.28667e-07
8.35803e-08
1.44384e-06
1.53951e-06
5.87866e-08
1.54635e-06
-1.22562e-07
1.54323e-06
9.73892e-08
1.54581e-06
-2.46152e-07
1.54524e-06
2.11613e-07
1.54177e-06
-3.25719e-07
1.54611e-06
3.92176e-07
1.54469e-06
-2.35075e-07
1.54826e-06
3.15712e-07
1.54964e-06
-6.51892e-08
1.55073e-06
1.61036e-07
1.55155e-06
2.67879e-08
1.55049e-06
7.68486e-08
1.55016e-06
3.32093e-08
1.54861e-06
8.09431e-08
1.54632e-06
1.41254e-08
1.54481e-06
9.56057e-08
1.53772e-06
2.33983e-08
1.53699e-06
1.29389e-07
1.00928e-07
1.51965e-06
1.61507e-06
6.38476e-08
1.61979e-06
-1.27285e-07
1.61876e-06
9.84188e-08
1.61992e-06
-2.47309e-07
1.62049e-06
2.11037e-07
1.61611e-06
-3.2133e-07
1.62122e-06
3.87067e-07
1.61884e-06
-2.32698e-07
1.62405e-06
3.10503e-07
1.6241e-06
-6.52413e-08
1.62675e-06
1.58381e-07
1.62688e-06
2.66592e-08
1.62686e-06
7.68735e-08
1.62616e-06
3.39126e-08
1.62548e-06
8.16156e-08
1.62251e-06
1.70957e-08
1.62212e-06
9.59939e-08
1.61382e-06
3.16988e-08
1.61425e-06
1.28967e-07
1.17373e-07
1.5978e-06
1.69451e-06
6.69168e-08
1.69723e-06
-1.30015e-07
1.69771e-06
9.79443e-08
1.69769e-06
-2.47292e-07
1.69901e-06
2.09724e-07
1.69379e-06
-3.16119e-07
1.69927e-06
3.81589e-07
1.69596e-06
-2.29383e-07
1.70217e-06
3.04285e-07
1.70123e-06
-6.43006e-08
1.70501e-06
1.546e-07
1.70463e-06
2.70393e-08
1.7056e-06
7.59028e-08
1.70453e-06
3.49843e-08
1.70486e-06
8.12857e-08
1.7012e-06
2.07584e-08
1.70194e-06
9.52557e-08
1.69271e-06
4.09286e-08
1.69387e-06
1.27808e-07
1.32354e-07
1.67889e-06
1.77728e-06
6.83568e-08
1.77864e-06
-1.31378e-07
1.77987e-06
9.67156e-08
1.77914e-06
-2.46559e-07
1.78095e-06
2.07912e-07
1.77518e-06
-3.10344e-07
1.78101e-06
3.75756e-07
1.77681e-06
-2.25182e-07
1.78378e-06
2.97314e-07
1.78194e-06
-6.24565e-08
1.78666e-06
1.49881e-07
1.78571e-06
2.79886e-08
1.78768e-06
7.39322e-08
1.78613e-06
3.65295e-08
1.78752e-06
7.98968e-08
1.78317e-06
2.51139e-08
1.7849e-06
9.35266e-08
1.77508e-06
5.07394e-08
1.7765e-06
1.26396e-07
1.45409e-07
1.76344e-06
1.86334e-06
6.87619e-08
1.86397e-06
-1.32001e-07
1.86541e-06
9.5269e-08
1.86431e-06
-2.45455e-07
1.86658e-06
2.05646e-07
1.86051e-06
-3.04276e-07
1.8669e-06
3.69357e-07
1.86188e-06
-2.20156e-07
1.8696e-06
2.89593e-07
1.8668e-06
-5.96594e-08
1.87241e-06
1.44277e-07
1.87073e-06
2.96609e-08
1.87369e-06
7.09724e-08
1.87155e-06
3.8678e-08
1.87395e-06
7.74915e-08
1.86895e-06
3.0116e-08
1.87139e-06
9.1084e-08
1.86141e-06
6.07184e-08
1.86256e-06
1.25249e-07
1.56205e-07
1.85176e-06
1.95298e-06
6.86193e-08
1.95327e-06
-1.32293e-07
1.95468e-06
9.38639e-08
1.95336e-06
-2.44138e-07
1.95611e-06
2.02901e-07
1.94992e-06
-2.9809e-07
1.95711e-06
3.62164e-07
1.95131e-06
-2.14355e-07
1.9599e-06
2.81009e-07
1.95607e-06
-5.58273e-08
1.96257e-06
1.37774e-07
1.96002e-06
3.2208e-08
1.96394e-06
6.70539e-08
1.9611e-06
4.15195e-08
1.96438e-06
7.42111e-08
1.95886e-06
3.56296e-08
1.96162e-06
8.83285e-08
1.95192e-06
7.04197e-08
1.95234e-06
1.24826e-07
1.6461e-07
1.94394e-06
2.04659e-06
6.8215e-08
2.04676e-06
-1.32458e-07
2.04805e-06
9.25691e-08
2.04655e-06
-2.42635e-07
2.04979e-06
1.99662e-07
2.04354e-06
-2.91836e-07
2.05168e-06
3.54021e-07
2.04512e-06
-2.078e-07
2.0547e-06
2.71433e-07
2.04977e-06
-5.09013e-08
2.05722e-06
1.30326e-07
2.05371e-06
3.57242e-08
2.05853e-06
6.22291e-08
2.055e-06
4.50532e-08
2.05892e-06
7.02908e-08
2.05314e-06
4.14109e-08
2.05573e-06
8.5733e-08
2.04673e-06
7.94239e-08
2.04613e-06
1.25427e-07
1.70725e-07
2.04001e-06
2.14453e-06
6.76836e-08
2.14466e-06
-1.32587e-07
2.14587e-06
9.13589e-08
2.14415e-06
-2.40917e-07
2.14789e-06
1.95926e-07
2.1415e-06
-2.85448e-07
2.15067e-06
3.44857e-07
2.14334e-06
-2.00477e-07
2.15401e-06
2.60768e-07
2.14796e-06
-4.48563e-08
2.15641e-06
1.21878e-07
2.15191e-06
4.02254e-08
2.15755e-06
5.65847e-08
2.15345e-06
4.91611e-08
2.15768e-06
6.60521e-08
2.15197e-06
4.71214e-08
2.15394e-06
8.37694e-08
2.14595e-06
8.7407e-08
2.14424e-06
1.27142e-07
1.74872e-07
2.14009e-06
2.24709e-06
6.70806e-08
2.24722e-06
-1.32713e-07
2.2484e-06
9.01735e-08
2.24642e-06
-2.38937e-07
2.25066e-06
1.91686e-07
2.24402e-06
-2.78804e-07
2.25423e-06
3.34651e-07
2.24609e-06
-1.92336e-07
2.25791e-06
2.48946e-07
2.25075e-06
-3.76939e-08
2.26023e-06
1.12394e-07
2.25481e-06
4.5646e-08
2.26113e-06
5.02629e-08
2.25669e-06
5.36022e-08
2.26086e-06
6.18848e-08
2.2556e-06
5.23788e-08
2.25654e-06
8.28336e-08
2.24976e-06
9.41847e-08
2.24704e-06
1.29861e-07
1.77505e-07
2.24441e-06
2.35453e-06
6.64291e-08
2.35466e-06
-1.32846e-07
2.35589e-06
8.89467e-08
2.3536e-06
-2.36654e-07
2.35837e-06
1.86916e-07
2.35133e-06
-2.71764e-07
2.36259e-06
3.23394e-07
2.35357e-06
-1.83313e-07
2.36659e-06
2.35923e-07
2.35834e-06
-2.9438e-08
2.36884e-06
1.01885e-07
2.36266e-06
5.18356e-08
2.36943e-06
4.34868e-08
2.36501e-06
5.80229e-08
2.36868e-06
5.82192e-08
2.36423e-06
5.68296e-08
2.3639e-06
8.31633e-08
2.35832e-06
9.97636e-08
2.35487e-06
1.33306e-07
1.79116e-07
2.35326e-06
2.46709e-06
6.57388e-08
2.46722e-06
-1.32981e-07
2.46855e-06
8.76125e-08
2.46593e-06
-2.34026e-07
2.47127e-06
1.81568e-07
2.46371e-06
-2.64196e-07
2.47603e-06
3.11068e-07
2.46606e-06
-1.7334e-07
2.4803e-06
2.21679e-07
2.47101e-06
-2.01421e-08
2.48246e-06
9.04274e-08
2.47575e-06
5.85532e-08
2.48266e-06
3.65705e-08
2.47869e-06
6.19938e-08
2.48143e-06
5.54753e-08
2.47804e-06
6.02219e-08
2.47643e-06
8.47764e-08
2.47183e-06
1.04366e-07
2.46806e-06
1.37077e-07
1.80155e-07
2.46702e-06
2.58502e-06
6.50117e-08
2.58513e-06
-1.33094e-07
2.58665e-06
8.61011e-08
2.58362e-06
-2.31e-07
2.58962e-06
1.75571e-07
2.5814e-06
-2.55982e-07
2.59483e-06
2.97644e-07
2.58385e-06
-1.62359e-07
2.5993e-06
2.06225e-07
2.58907e-06
-9.90796e-09
2.6013e-06
7.8191e-08
2.5944e-06
6.54586e-08
2.60105e-06
2.99156e-08
2.59799e-06
6.50582e-08
2.59947e-06
5.3996e-08
2.59722e-06
6.24719e-08
2.59453e-06
8.74637e-08
2.59053e-06
1.08365e-07
2.58686e-06
1.40753e-07
1.80974e-07
2.58604e-06
2.7086e-06
6.42439e-08
2.70865e-06
-1.33144e-07
2.71042e-06
8.43324e-08
2.70693e-06
-2.27514e-07
2.71367e-06
1.68835e-07
2.7047e-06
-2.47018e-07
2.71926e-06
2.83082e-07
2.70725e-06
-1.50346e-07
2.72385e-06
1.89619e-07
2.71285e-06
1.09399e-09
2.7256e-06
6.5442e-08
2.71893e-06
7.21273e-08
2.72488e-06
2.39702e-08
2.72313e-06
6.68026e-08
2.72315e-06
5.39812e-08
2.72192e-06
6.37007e-08
2.71854e-06
9.08434e-08
2.71474e-06
1.12165e-07
2.71148e-06
1.44015e-07
1.81765e-07
2.71069e-06
2.83809e-06
6.34262e-08
2.83801e-06
-1.33071e-07
2.84014e-06
8.22104e-08
2.83611e-06
-2.23489e-07
2.84369e-06
1.61258e-07
2.83388e-06
-2.37212e-07
2.84961e-06
2.67356e-07
2.83658e-06
-1.3732e-07
2.85422e-06
1.71985e-07
2.84271e-06
1.26034e-08
2.8556e-06
5.25511e-08
2.84966e-06
7.80689e-08
2.85445e-06
1.9172e-08
2.85432e-06
6.69389e-08
2.85289e-06
5.54115e-08
2.85234e-06
6.42487e-08
2.84873e-06
9.44561e-08
2.84482e-06
1.16069e-07
2.84211e-06
1.46732e-07
1.82554e-07
2.84132e-06
2.97378e-06
6.25449e-08
2.9735e-06
-1.32797e-07
2.97609e-06
7.96197e-08
2.97144e-06
-2.18832e-07
2.97996e-06
1.52731e-07
2.96925e-06
-2.26499e-07
2.98614e-06
2.50466e-07
2.97219e-06
-1.23365e-07
2.99064e-06
1.53534e-07
2.97898e-06
2.42598e-08
2.99155e-06
3.9979e-08
2.98686e-06
8.27616e-08
2.99013e-06
1.58977e-08
2.99172e-06
6.5352e-08
2.98911e-06
5.8019e-08
2.98874e-06
6.4619e-08
2.9853e-06
9.78966e-08
2.98115e-06
1.20224e-07
2.97893e-06
1.48948e-07
1.83259e-07
2.97823e-06
3.11597e-06
6.15831e-08
3.11539e-06
-1.32222e-07
3.11859e-06
7.64261e-08
3.1132e-06
-2.13448e-07
3.12278e-06
1.43157e-07
3.11112e-06
-2.14847e-07
3.12913e-06
2.32464e-07
3.11441e-06
-1.08652e-07
3.13337e-06
1.34577e-07
3.12203e-06
3.55996e-08
3.13376e-06
2.82532e-08
3.13082e-06
8.56946e-08
3.1323e-06
1.44239e-08
3.13554e-06
6.2104e-08
3.13222e-06
6.1347e-08
3.13154e-06
6.52998e-08
3.12848e-06
1.00947e-07
3.12397e-06
1.24734e-07
3.12225e-06
1.50672e-07
1.83871e-07
3.12164e-06
3.26497e-06
6.05228e-08
3.26398e-06
-1.31234e-07
3.26793e-06
7.24837e-08
3.26172e-06
-2.07247e-07
3.27242e-06
1.32463e-07
3.25985e-06
-2.02282e-07
3.27883e-06
2.13484e-07
3.26364e-06
-9.34562e-08
3.28268e-06
1.15534e-07
3.2722e-06
4.6075e-08
3.28252e-06
1.79343e-08
3.28181e-06
8.64059e-08
3.28131e-06
1.49229e-08
3.28607e-06
5.73496e-08
3.28252e-06
6.48947e-08
3.28136e-06
6.64581e-08
3.2786e-06
1.03709e-07
3.27336e-06
1.2997e-07
3.27235e-06
1.51686e-07
1.84601e-07
3.27162e-06
3.42111e-06
5.93461e-08
3.41959e-06
-1.29715e-07
3.42442e-06
6.76477e-08
3.41735e-06
-2.00169e-07
3.42918e-06
1.20633e-07
3.41581e-06
-1.88916e-07
3.43553e-06
1.93761e-07
3.42025e-06
-7.81708e-08
3.43885e-06
9.69309e-08
3.42983e-06
5.50927e-08
3.43825e-06
9.52205e-09
3.44003e-06
8.46193e-08
3.4376e-06
1.73562e-08
3.44358e-06
5.13679e-08
3.44036e-06
6.8117e-08
3.43931e-06
6.75075e-08
3.43668e-06
1.06343e-07
3.42955e-06
1.37091e-07
3.42803e-06
1.53211e-07
1.84386e-07
3.42824e-06
3.58472e-06
5.80359e-08
3.58255e-06
-1.27541e-07
3.58841e-06
6.1783e-08
3.58044e-06
-1.92194e-07
3.59336e-06
1.07709e-07
3.57938e-06
-1.74935e-07
3.59955e-06
1.73591e-07
3.58457e-06
-6.31914e-08
3.60232e-06
7.91763e-08
3.59507e-06
6.2349e-08
3.60154e-06
3.05172e-09
3.60544e-06
8.07128e-08
3.60187e-06
2.09294e-08
3.60817e-06
4.50708e-08
3.60644e-06
6.9849e-08
3.60666e-06
6.72847e-08
3.60956e-06
1.03447e-07
3.60497e-06
1.41681e-07
3.58854e-06
1.69641e-07
1.79012e-07
3.59391e-06
3.75616e-06
5.65797e-08
3.75323e-06
-1.24605e-07
3.76021e-06
5.47956e-08
3.75139e-06
-1.83369e-07
3.76527e-06
9.38265e-08
3.75097e-06
-1.60636e-07
3.7712e-06
1.53364e-07
3.75696e-06
-4.8956e-08
3.77352e-06
6.26212e-08
3.76809e-06
6.77805e-08
3.77299e-06
-1.84969e-09
3.77814e-06
7.55577e-08
3.77473e-06
2.43478e-08
3.78024e-06
3.95585e-08
3.78153e-06
6.85549e-08
3.78253e-06
6.6287e-08
3.78859e-06
9.73844e-08
3.79723e-06
1.33041e-07
3.81009e-06
1.56787e-07
2.03238e-07
3.78586e-06
3.93579e-06
5.49749e-08
3.93204e-06
-1.2085e-07
3.94014e-06
4.66917e-08
3.93065e-06
-1.73882e-07
3.94519e-06
7.92949e-08
3.93109e-06
-1.46543e-07
3.95075e-06
1.33708e-07
3.93793e-06
-3.61379e-08
3.95267e-06
4.78809e-08
3.9495e-06
7.09488e-08
3.95255e-06
-4.89932e-09
3.9591e-06
6.90076e-08
3.95579e-06
2.76587e-08
3.96104e-06
3.43097e-08
3.96066e-06
6.89374e-08
3.9514e-06
7.55407e-08
3.94755e-06
1.01239e-07
3.94198e-06
1.38614e-07
3.93168e-06
1.67088e-07
1.9292e-07
3.94199e-06
4.124e-06
5.32262e-08
4.11941e-06
-1.16264e-07
4.12853e-06
3.75786e-08
4.11867e-06
-1.64028e-07
4.13346e-06
6.45116e-08
4.12015e-06
-1.33234e-07
4.13865e-06
1.15199e-07
4.12775e-06
-2.52299e-08
4.14031e-06
3.53191e-08
4.13956e-06
7.16947e-08
4.14059e-06
-5.92277e-09
4.14858e-06
6.10158e-08
4.14328e-06
3.29539e-08
4.1432e-06
3.43929e-08
4.13788e-06
7.42599e-08
4.13216e-06
8.12573e-08
4.12871e-06
1.04693e-07
4.12511e-06
1.42208e-07
4.12168e-06
1.70518e-07
1.88817e-07
4.12578e-06
4.32118e-06
5.13527e-08
4.31582e-06
-1.10903e-07
4.32571e-06
2.76865e-08
4.31589e-06
-1.54206e-07
4.33051e-06
4.98908e-08
4.31847e-06
-1.21195e-07
4.33552e-06
9.81465e-08
4.32654e-06
-1.62512e-08
4.33718e-06
2.4682e-08
4.33818e-06
7.06903e-08
4.33736e-06
-5.10205e-09
4.34329e-06
5.50934e-08
4.33447e-06
4.17659e-08
4.33227e-06
3.65943e-08
4.33013e-06
7.63974e-08
4.32399e-06
8.73988e-08
4.32091e-06
1.07777e-07
4.3194e-06
1.4372e-07
4.3189e-06
1.71016e-07
1.86763e-07
4.32095e-06
4.52774e-06
4.93895e-08
4.52175e-06
-1.04916e-07
4.53201e-06
1.74228e-08
4.52278e-06
-1.44968e-07
4.53676e-06
3.59103e-08
4.52644e-06
-1.10884e-07
4.54191e-06
8.26772e-08
4.53461e-06
-8.95023e-09
4.54367e-06
1.56204e-08
4.54502e-06
6.93415e-08
4.54095e-06
-1.02678e-09
4.54411e-06
5.19328e-08
4.53656e-06
4.93119e-08
4.533e-06
4.01526e-08
4.53201e-06
7.73941e-08
4.52622e-06
9.31895e-08
4.52323e-06
1.1076e-07
4.52303e-06
1.4392e-07
4.52438e-06
1.69672e-07
1.85463e-07
4.52568e-06
4.74412e-06
4.73859e-08
4.73774e-06
-9.85342e-08
4.74783e-06
7.32636e-09
4.73977e-06
-1.36901e-07
4.75274e-06
2.29389e-08
4.74435e-06
-1.025e-07
4.75844e-06
6.8586e-08
4.75223e-06
-2.74013e-09
4.75961e-06
8.24205e-09
4.7594e-06
6.95544e-08
4.75259e-06
5.78024e-09
4.75521e-06
4.93109e-08
4.74888e-06
5.56501e-08
4.7444e-06
4.46264e-08
4.74377e-06
7.80307e-08
4.7388e-06
9.81565e-08
4.73577e-06
1.13788e-07
4.73648e-06
1.4321e-07
4.73859e-06
1.67565e-07
1.83942e-07
4.74011e-06
4.97078e-06
4.54052e-08
4.96431e-06
-9.20685e-08
4.97361e-06
-1.9752e-09
4.96725e-06
-1.30535e-07
4.97906e-06
1.11256e-08
4.97247e-06
-9.59112e-08
4.98562e-06
5.54361e-08
4.97943e-06
3.44848e-09
4.98385e-06
3.8285e-09
4.9826e-06
7.07999e-08
4.97468e-06
1.36991e-08
4.97676e-06
4.72384e-08
4.97172e-06
6.06864e-08
4.96656e-06
4.97824e-08
4.96593e-06
7.86672e-08
4.96195e-06
1.02137e-07
4.95893e-06
1.16803e-07
4.96029e-06
1.41851e-07
4.9624e-06
1.65454e-07
1.81691e-07
4.96465e-06
5.20821e-06
4.35157e-08
5.20201e-06
-8.58771e-08
5.2099e-06
-9.85929e-09
5.20555e-06
-1.26186e-07
5.21639e-06
2.88396e-10
5.21115e-06
-9.0676e-08
5.22355e-06
4.30387e-08
5.21612e-06
1.08802e-08
5.21672e-06
3.22838e-09
5.21634e-06
7.11763e-08
5.20791e-06
2.21296e-08
5.20928e-06
4.587e-08
5.20541e-06
6.45579e-08
5.19987e-06
5.53198e-08
5.19901e-06
7.95229e-08
5.196e-06
1.05149e-07
5.19329e-06
1.19512e-07
5.19476e-06
1.40384e-07
5.19707e-06
1.63143e-07
1.78823e-07
5.19994e-06
5.45692e-06
4.17831e-08
5.45139e-06
-8.03454e-08
5.45736e-06
-1.5825e-08
5.45492e-06
-1.23752e-07
5.46526e-06
-1.00516e-08
5.4606e-06
-8.60186e-08
5.47165e-06
3.19913e-08
5.46243e-06
2.01008e-08
5.46034e-06
5.32243e-09
5.46114e-06
7.03695e-08
5.45286e-06
3.04145e-08
5.45329e-06
4.54373e-08
5.45036e-06
6.74926e-08
5.44477e-06
6.09093e-08
5.44357e-06
8.07152e-08
5.44143e-06
1.07292e-07
5.4393e-06
1.21647e-07
5.44048e-06
1.392e-07
5.44319e-06
1.6044e-07
1.75409e-07
5.4466e-06
5.71748e-06
4.02613e-08
5.71299e-06
-7.5853e-08
5.71679e-06
-1.96306e-08
5.71557e-06
-1.22532e-07
5.72589e-06
-2.03699e-08
5.72028e-06
-8.04084e-08
5.7284e-06
2.38713e-08
5.7199e-06
2.8604e-08
5.71596e-06
9.25551e-09
5.71766e-06
6.86714e-08
5.70995e-06
3.81264e-08
5.70934e-06
4.60518e-08
5.7071e-06
6.97264e-08
5.70172e-06
6.62918e-08
5.70018e-06
8.22507e-08
5.69881e-06
1.0867e-07
5.69733e-06
1.23126e-07
5.6982e-06
1.38331e-07
5.70123e-06
1.57402e-07
1.71469e-07
5.70518e-06
5.99048e-06
3.89779e-08
5.98735e-06
-7.27235e-08
5.98903e-06
-2.13164e-08
5.98778e-06
-1.21276e-07
5.99786e-06
-3.04531e-08
5.99013e-06
-7.26731e-08
5.99607e-06
1.79309e-08
5.98953e-06
3.51423e-08
5.98452e-06
1.42673e-08
5.98646e-06
6.67296e-08
5.97962e-06
4.49684e-08
5.978e-06
4.76628e-08
5.97625e-06
7.14813e-08
5.97123e-06
7.13108e-08
5.96941e-06
8.40706e-08
5.96871e-06
1.09369e-07
5.96784e-06
1.23996e-07
5.96856e-06
1.37613e-07
5.9718e-06
1.54164e-07
1.6707e-07
5.97619e-06
6.27653e-06
3.79319e-08
6.27495e-06
-7.11348e-08
6.2749e-06
-2.12726e-08
6.27199e-06
-1.18368e-07
6.28116e-06
-3.96206e-08
6.27261e-06
-6.41187e-08
6.27678e-06
1.37549e-08
6.27214e-06
3.97892e-08
6.26652e-06
1.98782e-08
6.26819e-06
6.50651e-08
6.26231e-06
5.08464e-08
6.2599e-06
5.00787e-08
6.25843e-06
7.29423e-08
6.25385e-06
7.58903e-08
6.25182e-06
8.61028e-08
6.25173e-06
1.09458e-07
6.2514e-06
1.24327e-07
6.25217e-06
1.36843e-07
6.2555e-06
1.50839e-07
1.62328e-07
6.26024e-06
6.57631e-06
3.70939e-08
6.57625e-06
-7.10726e-08
6.5751e-06
-2.01262e-08
6.56934e-06
-1.12614e-07
6.5775e-06
-4.77718e-08
6.56927e-06
-5.58914e-08
6.5715e-06
1.15191e-08
6.5683e-06
4.29886e-08
6.56251e-06
2.56758e-08
6.56357e-06
6.39975e-08
6.55857e-06
5.58477e-08
6.55561e-06
5.30384e-08
6.55431e-06
7.4244e-08
6.55021e-06
7.99911e-08
6.54803e-06
8.82865e-08
6.54846e-06
1.09024e-07
6.54865e-06
1.24135e-07
6.54964e-06
1.35855e-07
6.55299e-06
1.4749e-07
1.57361e-07
6.55796e-06
6.89047e-06
3.64099e-08
6.8917e-06
-7.22978e-08
6.89029e-06
-1.87192e-08
6.8814e-06
-1.03725e-07
6.88815e-06
-5.45185e-08
6.88058e-06
-4.83205e-08
6.88091e-06
1.11923e-08
6.87865e-06
4.52491e-08
6.873e-06
3.1319e-08
6.87334e-06
6.36647e-08
6.86904e-06
6.01414e-08
6.86577e-06
5.63105e-08
6.86455e-06
7.54599e-08
6.86096e-06
8.35834e-08
6.85869e-06
9.05596e-08
6.85952e-06
1.08189e-07
6.86025e-06
1.2341e-07
6.86158e-06
1.34524e-07
6.86495e-06
1.44124e-07
1.52273e-07
6.87003e-06
7.21975e-06
3.58e-08
7.22182e-06
-7.4371e-08
7.22113e-06
-1.80293e-08
7.20933e-06
-9.19235e-08
7.21396e-06
-5.91461e-08
7.2071e-06
-4.14669e-08
7.20562e-06
1.26729e-08
7.20386e-06
4.70149e-08
7.19858e-06
3.65975e-08
7.19822e-06
6.40184e-08
7.19441e-06
6.39506e-08
7.191e-06
5.97238e-08
7.18984e-06
7.66184e-08
7.18679e-06
8.66382e-08
7.18454e-06
9.28119e-08
7.18558e-06
1.07139e-07
7.18687e-06
1.22129e-07
7.18864e-06
1.32751e-07
7.19206e-06
1.40699e-07
1.47143e-07
7.19719e-06
7.56485e-06
3.51742e-08
7.56728e-06
-7.68029e-08
7.56809e-06
-1.88321e-08
7.55392e-06
-7.77615e-08
7.55573e-06
-6.09547e-08
7.54948e-06
-3.52111e-08
7.54637e-06
1.57847e-08
7.54467e-06
4.87123e-08
7.53988e-06
4.13848e-08
7.53897e-06
6.49295e-08
7.53545e-06
6.74668e-08
7.53199e-06
6.31906e-08
7.53089e-06
7.77194e-08
7.5284e-06
8.91217e-08
7.52633e-06
9.4885e-08
7.52737e-06
1.06098e-07
7.5292e-06
1.20295e-07
7.53149e-06
1.30466e-07
7.53505e-06
1.37143e-07
1.42007e-07
7.54018e-06
7.92654e-06
3.44429e-08
7.9287e-06
-7.89613e-08
7.93162e-06
-2.17526e-08
7.91591e-06
-6.20503e-08
7.91424e-06
-5.92861e-08
7.90837e-06
-2.93365e-08
7.90391e-06
2.02412e-08
7.90188e-06
5.07448e-08
7.89761e-06
4.56578e-08
7.89632e-06
6.62182e-08
7.89296e-06
7.08235e-08
7.88946e-06
6.6691e-08
7.88841e-06
7.87644e-08
7.88654e-06
9.09925e-08
7.8848e-06
9.66269e-08
7.88569e-06
1.05205e-07
7.888e-06
1.17989e-07
7.89084e-06
1.27628e-07
7.89462e-06
1.33366e-07
1.36864e-07
7.89976e-06
8.30559e-06
3.35371e-08
8.30689e-06
-8.02614e-08
8.31218e-06
-2.7049e-08
8.29568e-06
-4.55466e-08
8.29022e-06
-5.38298e-08
8.28448e-06
-2.35928e-08
8.27905e-06
2.56694e-08
8.27636e-06
5.34338e-08
8.27249e-06
4.95341e-08
8.27102e-06
6.76818e-08
8.26777e-06
7.40778e-08
8.26422e-06
7.02433e-08
8.2632e-06
7.97822e-08
8.26197e-06
9.22236e-08
8.26069e-06
9.79068e-08
8.26142e-06
1.0447e-07
8.26405e-06
1.15363e-07
8.26743e-06
1.24241e-07
8.27152e-06
1.29279e-07
1.31674e-07
8.27671e-06
8.70277e-06
3.24244e-08
8.70312e-06
-8.06118e-08
8.70951e-06
-3.34292e-08
8.69336e-06
-2.94032e-08
8.68438e-06
-4.48442e-08
8.67857e-06
-1.77843e-08
8.67261e-06
3.16247e-08
8.66903e-06
5.70175e-08
8.66534e-06
5.32187e-08
8.66386e-06
6.91689e-08
8.66073e-06
7.72032e-08
8.65711e-06
7.38619e-08
8.65606e-06
8.08357e-08
8.65545e-06
9.28336e-08
8.65475e-06
9.86026e-08
8.65541e-06
1.0381e-07
8.65821e-06
1.12572e-07
8.66207e-06
1.20377e-07
8.66654e-06
1.24812e-07
1.26375e-07
8.67184e-06
9.11894e-06
3.11061e-08
9.11812e-06
-7.97987e-08
9.12456e-06
-3.98642e-08
9.10888e-06
-1.37251e-08
9.09736e-06
-3.33236e-08
9.09145e-06
-1.18771e-08
9.08538e-06
3.76948e-08
9.08085e-06
6.15493e-08
9.07706e-06
5.70122e-08
9.07562e-06
7.06025e-08
9.07272e-06
8.01116e-08
9.06904e-06
7.75331e-08
9.06788e-06
8.20021e-08
9.06782e-06
9.28875e-08
9.06779e-06
9.86377e-08
9.06853e-06
1.03069e-07
9.07139e-06
1.09715e-07
9.07561e-06
1.16156e-07
9.08048e-06
1.19939e-07
1.20892e-07
9.08596e-06
9.55495e-06
2.96121e-08
9.55139e-06
-7.62374e-08
9.55664e-06
-4.5108e-08
9.54299e-06
-7.49162e-11
9.52999e-06
-2.0331e-08
9.52402e-06
-5.90154e-09
9.5182e-06
4.35119e-08
9.51277e-06
6.69754e-08
9.5086e-06
6.119e-08
9.50719e-06
7.2012e-08
9.5046e-06
8.26978e-08
9.50094e-06
8.11936e-08
9.49959e-06
8.33498e-08
9.49999e-06
9.24878e-08
9.50062e-06
9.80058e-08
9.50164e-06
1.02052e-07
9.50454e-06
1.06817e-07
9.50898e-06
1.11713e-07
9.51422e-06
1.14697e-07
1.15163e-07
9.51995e-06
1.00117e-05
2.80021e-08
1.00044e-05
-6.88534e-08
1.00085e-05
-4.92185e-08
9.99709e-06
1.13076e-08
9.98335e-06
-6.5931e-09
9.9772e-06
2.52006e-10
9.97188e-06
4.88304e-08
9.96574e-06
7.31176e-08
9.96096e-06
6.59709e-08
9.95946e-06
7.3506e-08
9.95727e-06
8.4888e-08
9.95374e-06
8.47246e-08
9.95218e-06
8.49068e-08
9.95288e-06
9.17878e-08
9.95415e-06
9.6738e-08
9.95562e-06
1.0058e-07
9.95861e-06
1.0383e-07
9.96318e-06
1.07149e-07
9.9687e-06
1.09172e-07
1.0916e-07
9.9747e-06
1.04903e-05
2.63348e-08
1.04799e-05
-5.84281e-08
1.04827e-05
-5.20133e-08
1.0473e-05
2.101e-08
1.04586e-05
7.78505e-09
1.0452e-05
6.83635e-09
1.04473e-05
5.35645e-08
1.04407e-05
7.96869e-08
1.04352e-05
7.15138e-08
1.04334e-05
7.52403e-08
1.04317e-05
8.66636e-08
1.04284e-05
8.79801e-08
1.04267e-05
8.66448e-08
1.04275e-05
9.09727e-08
1.04293e-05
9.49086e-08
1.04314e-05
9.85263e-08
1.04345e-05
1.00646e-07
1.04392e-05
1.025e-07
1.04449e-05
1.03457e-07
1.029e-07
1.04512e-05
1.09917e-05
2.46576e-08
1.0983e-05
-4.97209e-08
1.09804e-05
-4.94518e-08
1.09718e-05
2.96274e-08
1.0957e-05
2.25747e-08
1.09496e-05
1.42857e-08
1.09454e-05
5.77824e-08
1.09387e-05
8.63775e-08
1.09323e-05
7.78878e-08
1.09301e-05
7.74152e-08
1.09287e-05
8.80368e-08
1.09259e-05
9.08266e-08
1.09241e-05
8.84744e-08
1.09248e-05
9.01863e-08
1.09271e-05
9.26815e-08
1.09298e-05
9.58093e-08
1.09333e-05
9.7138e-08
1.09381e-05
9.77439e-08
1.09439e-05
9.76212e-08
9.64353e-08
1.09504e-05
1.1517e-05
2.30666e-08
1.15044e-05
-3.72105e-08
1.15018e-05
-4.68571e-08
1.14948e-05
3.66892e-08
1.14798e-05
3.75219e-08
1.1471e-05
2.30769e-08
1.14672e-05
6.16797e-08
1.14606e-05
9.29103e-08
1.14535e-05
8.50492e-08
1.14506e-05
8.02722e-08
1.14496e-05
8.90586e-08
1.14472e-05
9.31621e-08
1.14454e-05
9.02737e-08
1.14462e-05
8.94767e-08
1.14485e-05
9.03107e-08
1.14519e-05
9.23936e-08
1.14559e-05
9.31874e-08
1.14608e-05
9.28129e-08
1.14668e-05
9.16878e-08
8.98186e-08
1.14734e-05
1.20672e-05
2.1638e-08
1.20532e-05
-2.31698e-08
1.20481e-05
-4.17743e-08
1.20428e-05
4.20381e-08
1.20281e-05
5.22188e-08
1.20178e-05
3.34038e-08
1.20138e-05
6.56582e-08
1.20076e-05
9.90733e-08
1.19998e-05
9.28506e-08
1.1996e-05
8.40356e-08
1.19952e-05
8.98766e-08
1.19935e-05
9.48863e-08
1.19919e-05
9.19175e-08
1.19925e-05
8.88354e-08
1.19948e-05
8.79902e-08
1.19989e-05
8.83573e-08
1.20033e-05
8.87124e-08
1.20085e-05
8.76127e-08
1.20146e-05
8.56397e-08
8.30786e-08
1.20213e-05
1.26438e-05
2.04592e-08
1.26292e-05
-8.58973e-09
1.2622e-05
-3.45393e-08
1.26171e-05
4.69276e-08
1.26027e-05
6.65394e-08
1.25909e-05
4.52069e-08
1.25864e-05
7.0171e-08
1.25807e-05
1.04781e-07
1.25725e-05
1.0107e-07
1.25677e-05
8.88436e-08
1.25668e-05
9.07788e-08
1.25658e-05
9.59204e-08
1.25644e-05
9.32793e-08
1.25649e-05
8.83148e-08
1.25673e-05
8.56256e-08
1.25716e-05
8.39943e-08
1.25767e-05
8.36502e-08
1.25823e-05
8.20619e-08
1.25885e-05
7.94097e-08
7.62005e-08
1.25954e-05
1.32478e-05
1.95975e-08
1.32351e-05
4.06998e-09
1.32244e-05
-2.37626e-08
1.3219e-05
5.23129e-08
1.3205e-05
8.05057e-08
1.31919e-05
5.83291e-08
1.31864e-05
7.56476e-08
1.31811e-05
1.10076e-07
1.31727e-05
1.09495e-07
1.31668e-05
9.46886e-08
1.31655e-05
9.21393e-08
1.31651e-05
9.63027e-08
1.31642e-05
9.42195e-08
1.31646e-05
8.79186e-08
1.31671e-05
8.30332e-08
1.31715e-05
7.96573e-08
1.31772e-05
7.7923e-08
1.31831e-05
7.62053e-08
1.31896e-05
7.2851e-08
6.91251e-08
1.31967e-05
1.38806e-05
1.91185e-08
1.38687e-05
1.60112e-08
1.38558e-05
-1.08123e-08
1.38498e-05
5.8296e-08
1.38362e-05
9.4083e-08
1.38219e-05
7.26641e-08
1.38151e-05
8.24122e-08
1.381e-05
1.1513e-07
1.38016e-05
1.17921e-07
1.37948e-05
1.01477e-07
1.37927e-05
9.42787e-08
1.37927e-05
9.62808e-08
1.37923e-05
9.46136e-08
1.37927e-05
8.74904e-08
1.37955e-05
8.02926e-08
1.37997e-05
7.54122e-08
1.38061e-05
7.1523e-08
1.38121e-05
7.01892e-08
1.38192e-05
6.57635e-08
6.17545e-08
1.38266e-05
1.45437e-05
1.90659e-08
1.45309e-05
2.87844e-08
1.45174e-05
2.68641e-09
1.45108e-05
6.49872e-08
1.44977e-05
1.0716e-07
1.44822e-05
8.81591e-08
1.44739e-05
9.06651e-08
1.44688e-05
1.20263e-07
1.44606e-05
1.2615e-07
1.44529e-05
1.09117e-07
1.44498e-05
9.73752e-08
1.44499e-05
9.62494e-08
1.44501e-05
9.44091e-08
1.44507e-05
8.68376e-08
1.44534e-05
7.7656e-08
1.44579e-05
7.09066e-08
1.44644e-05
6.49921e-08
1.4471e-05
6.35339e-08
1.44784e-05
5.83693e-08
5.38712e-08
1.44863e-05
1.52385e-05
1.94389e-08
1.52268e-05
4.05376e-08
1.52113e-05
1.8104e-08
1.52033e-05
7.30061e-08
1.51908e-05
1.19692e-07
1.51743e-05
1.04661e-07
1.51644e-05
1.00586e-07
1.51588e-05
1.25844e-07
1.51509e-05
1.3408e-07
1.51425e-05
1.1748e-07
1.51383e-05
1.01548e-07
1.5138e-05
9.65689e-08
1.51387e-05
9.37551e-08
1.51397e-05
8.58367e-08
1.51422e-05
7.50941e-08
1.51471e-05
6.60543e-08
1.51532e-05
5.88491e-08
1.51612e-05
5.55643e-08
1.51686e-05
5.0982e-08
4.54543e-08
1.5177e-05
1.59665e-05
2.03085e-08
1.59551e-05
5.1886e-08
1.59382e-05
3.49715e-08
1.59291e-05
8.21134e-08
1.59169e-05
1.31938e-07
1.58997e-05
1.21893e-07
1.58879e-05
1.12363e-07
1.58815e-05
1.32209e-07
1.58738e-05
1.4179e-07
1.58649e-05
1.26355e-07
1.58596e-05
1.06927e-07
1.58586e-05
9.75194e-08
1.58594e-05
9.29911e-08
1.58608e-05
8.44138e-08
1.58634e-05
7.24523e-08
1.58683e-05
6.11507e-08
1.58745e-05
5.26692e-08
1.5883e-05
4.70894e-08
1.58916e-05
4.23569e-08
3.73432e-08
1.58997e-05
1.67292e-05
2.17448e-08
1.67163e-05
6.48012e-08
1.67001e-05
5.11246e-08
1.66898e-05
9.23954e-08
1.66776e-05
1.44201e-07
1.66598e-05
1.39636e-07
1.66461e-05
1.26078e-07
1.66386e-05
1.39729e-07
1.66309e-05
1.49493e-07
1.66217e-05
1.35563e-07
1.6615e-05
1.13557e-07
1.66131e-05
9.94196e-08
1.66137e-05
9.24573e-08
1.66154e-05
8.26407e-08
1.66183e-05
6.96309e-08
1.6623e-05
5.64149e-08
1.66297e-05
4.59985e-08
1.66383e-05
3.84705e-08
1.66477e-05
3.29304e-08
2.82939e-08
1.66568e-05
1.75284e-05
2.37258e-08
1.75191e-05
7.40698e-08
1.74993e-05
7.08972e-08
1.74869e-05
1.04836e-07
1.74744e-05
1.56681e-07
1.74563e-05
1.57764e-07
1.74407e-05
1.41703e-07
1.74316e-05
1.48786e-07
1.74236e-05
1.57483e-07
1.74141e-05
1.45065e-07
1.74063e-05
1.21368e-07
1.74031e-05
1.02669e-07
1.74031e-05
9.24591e-08
1.74049e-05
8.07947e-08
1.74079e-05
6.66066e-08
1.74127e-05
5.16457e-08
1.74197e-05
3.90153e-08
1.74286e-05
2.95565e-08
1.74386e-05
2.28815e-08
1.78528e-08
1.74491e-05
1.83657e-05
2.63507e-08
1.83552e-05
8.45953e-08
1.83365e-05
8.95531e-08
1.83222e-05
1.19179e-07
1.83092e-05
1.69647e-07
1.82908e-05
1.76213e-07
1.82733e-05
1.59178e-07
1.82624e-05
1.59739e-07
1.82537e-05
1.66145e-07
1.82438e-05
1.54945e-07
1.82348e-05
1.30341e-07
1.82299e-05
1.07568e-07
1.8229e-05
9.33678e-08
1.82306e-05
7.92694e-08
1.82337e-05
6.34501e-08
1.82387e-05
4.66858e-08
1.82459e-05
3.18026e-08
1.82553e-05
2.01786e-08
1.82662e-05
1.19169e-08
6.26176e-09
1.82778e-05
1.92431e-05
2.96646e-08
1.92339e-05
9.37765e-08
1.92137e-05
1.097e-07
1.91974e-05
1.35497e-07
1.91838e-05
1.83265e-07
1.9165e-05
1.94992e-07
1.91458e-05
1.78434e-07
1.91326e-05
1.729e-07
1.91228e-05
1.75917e-07
1.91124e-05
1.65435e-07
1.91022e-05
1.40529e-07
1.90954e-05
1.14372e-07
1.90931e-05
9.55898e-08
1.90938e-05