/*--------------------------------*- C++ -*----------------------------------*\
| =========                 |                                                 |
| \\      /  F ield         | OpenFOAM: The Open Source CFD Toolbox           |
|  \\    /   O peration     | Version:  v2012                                 |
|   \\  /    A nd           | Website:  www.openfoam.com                      |
|    \\/     M anipulation  |                                                 |
\*---------------------------------------------------------------------------*/
FoamFile
{
    version     2.0;
    format      ascii;
    class       volVectorField;
    location    "2.75";
    object      U;
}
// * * * * * * * * * * * * * * * * * * * * * * * * * * * * * * * * * * * * * //

dimensions      [0 1 -1 0 0 0 0];


internalField   nonuniform List<vector> 
17600
(
(0.82788 0.000442039 0)
(1.16609 -0.00110564 0)
(0.84795 0.000934399 0)
(1.14263 -0.00316653 0)
(0.864119 0.00301631 0)
(1.12919 -0.00557618 0)
(0.870922 0.00709892 0)
(1.12534 -0.00492215 0)
(0.869546 0.00662197 0)
(1.12195 -0.00148081 0)
(0.86848 0.00356408 0)
(1.11384 0.000783661 0)
(0.866319 0.0015511 0)
(1.10724 0.00112523 0)
(0.862107 0.00173977 0)
(1.10199 0.000428965 0)
(0.854243 0.00223768 0)
(1.09808 0.000411118 0)
(0.840551 0.00332548 0)
(1.09405 0.000683247 0)
(0.838994 0.000393224 0)
(1.15316 -0.00106349 0)
(0.860284 0.000914252 0)
(1.12903 -0.00309795 0)
(0.876363 0.00293717 0)
(1.11397 -0.00540434 0)
(0.882804 0.00691251 0)
(1.10659 -0.0046457 0)
(0.884042 0.00641483 0)
(1.09836 -0.00121295 0)
(0.890114 0.00341798 0)
(1.08429 0.00111257 0)
(0.898723 0.00143787 0)
(1.06897 0.0014132 0)
(0.909315 0.0017138 0)
(1.04923 0.000719926 0)
(0.922564 0.00253334 0)
(1.02147 0.000404961 0)
(0.941002 0.00475997 0)
(0.979557 -4.72338e-05 0)
(0.860388 0.000362364 0)
(1.1291 -0.00103727 0)
(0.88352 0.000918707 0)
(1.10481 -0.0030495 0)
(0.899896 0.00288361 0)
(1.08855 -0.00525893 0)
(0.906422 0.0067524 0)
(1.078 -0.00443306 0)
(0.911789 0.00626079 0)
(1.06441 -0.0010883 0)
(0.925797 0.00342025 0)
(1.04532 0.00111474 0)
(0.941565 0.00156846 0)
(1.02654 0.00132051 0)
(0.955838 0.00201535 0)
(1.00733 0.000526798 0)
(0.966885 0.00301427 0)
(0.987867 0.000214759 0)
(0.973001 0.00525216 0)
(0.970307 0.00091199 0)
(0.888795 0.000372457 0)
(1.09814 -0.00106239 0)
(0.912866 0.000960197 0)
(1.07526 -0.00305059 0)
(0.928958 0.00288902 0)
(1.05982 -0.00517594 0)
(0.935126 0.00669752 0)
(1.0494 -0.00434904 0)
(0.943027 0.00626948 0)
(1.03521 -0.00115055 0)
(0.95939 0.00357809 0)
(1.01817 0.00093985 0)
(0.973042 0.00181836 0)
(1.00469 0.00111017 0)
(0.980778 0.00232668 0)
(0.994693 0.000355506 0)
(0.98284 0.00335308 0)
(0.986315 0.000209312 0)
(0.980132 0.00548977 0)
(0.978566 0.0019888 0)
(0.919338 0.000418503 0)
(1.06629 -0.00113349 0)
(0.941992 0.00102676 0)
(1.04704 -0.00308902 0)
(0.956185 0.00292753 0)
(1.0348 -0.00512651 0)
(0.960838 0.00668512 0)
(1.0277 -0.00432745 0)
(0.968468 0.00633345 0)
(1.01765 -0.00126546 0)
(0.982084 0.00373874 0)
(1.00693 0.000798342 0)
(0.990223 0.00200084 0)
(0.999931 0.00101315 0)
(0.992178 0.00250367 0)
(0.995667 0.000335592 0)
(0.990182 0.00354236 0)
(0.990791 0.000337834 0)
(0.98593 0.00567822 0)
(0.984139 0.00299793 0)
(0.947089 0.000487246 0)
(1.03928 -0.00122511 0)
(0.96579 0.00109583 0)
(1.02533 -0.0031396 0)
(0.976589 0.00296592 0)
(1.01746 -0.00508378 0)
(0.978946 0.0066561 0)
(1.01447 -0.00431479 0)
(0.984732 0.00635065 0)
(1.0097 -0.00134982 0)
(0.994361 0.00381416 0)
(1.00456 0.000724198 0)
(0.998589 0.00209683 0)
(1.00124 0.000990129 0)
(0.998221 0.00260047 0)
(0.998864 0.000376605 0)
(0.995345 0.00366434 0)
(0.994741 0.000533888 0)
(0.991041 0.00582111 0)
(0.98861 0.00392614 0)
(0.968717 0.000560351 0)
(1.02029 -0.00131051 0)
(0.982135 0.00114671 0)
(1.01183 -0.00318053 0)
(0.989157 0.00298549 0)
(1.00776 -0.00503291 0)
(0.9893 0.00659554 0)
(1.00756 -0.00429237 0)
(0.993202 0.00630142 0)
(1.00655 -0.00139347 0)
(0.999945 0.00380821 0)
(1.00467 0.000691953 0)
(1.00247 0.00213726 0)
(1.00297 0.000991108 0)
(1.00162 0.00266134 0)
(1.00124 0.000445479 0)
(0.998724 0.00373494 0)
(0.997584 0.000810899 0)
(0.99453 0.0058805 0)
(0.992116 0.00481992 0)
(0.983271 0.000621208 0)
(1.00927 -0.00137371 0)
(0.991704 0.00117087 0)
(1.00506 -0.0032024 0)
(0.99568 0.00298453 0)
(1.00335 -0.00496905 0)
(0.994241 0.0065136 0)
(1.00425 -0.00425634 0)
(0.996821 0.0062077 0)
(1.00507 -0.00140863 0)
(1.00201 0.00375598 0)
(1.00473 0.000679345 0)
(1.00405 0.00214637 0)
(1.00388 0.00100565 0)
(1.00332 0.00269446 0)
(1.0026 0.000542 0)
(1.00065 0.00375788 0)
(0.999415 0.00115982 0)
(0.996741 0.00586568 0)
(0.994557 0.00567017 0)
(0.991786 0.000661717 0)
(1.00399 -0.00141227 0)
(0.996564 0.00117222 0)
(1.0023 -0.00320703 0)
(0.998661 0.00296965 0)
(1.00173 -0.00489297 0)
(0.996361 0.00642262 0)
(1.00274 -0.0042046 0)
(0.998123 0.00608997 0)
(1.00418 -0.00140147 0)
(1.00256 0.00367796 0)
(1.00449 0.00067834 0)
(1.00453 0.00213364 0)
(1.0042 0.00103137 0)
(1.00408 0.00269691 0)
(1.00334 0.000668049 0)
(1.00174 0.00373346 0)
(1.00058 0.00155936 0)
(0.99823 0.00580536 0)
(0.996284 0.00644924 0)
(0.996181 0.00068295 0)
(1.00189 -0.0014323 0)
(0.99878 0.00116017 0)
(1.00128 -0.00320059 0)
(0.999978 0.00294667 0)
(1.00125 -0.00480762 0)
(0.997402 0.00632744 0)
(1.00213 -0.00413623 0)
(0.998672 0.00595736 0)
(1.00366 -0.00137303 0)
(1.00267 0.00357837 0)
(1.00421 0.000691585 0)
(1.00466 0.00209604 0)
(1.0043 0.0010696 0)
(1.00446 0.00266543 0)
(1.0038 0.000822027 0)
(1.00245 0.00366252 0)
(1.00142 0.00198928 0)
(0.999368 0.00573004 0)
(0.997645 0.00712768 0)
(0.998253 0.000690754 0)
(1.00115 -0.00144157 0)
(0.99975 0.00114304 0)
(1.00079 -0.00318826 0)
(1.00062 0.00291766 0)
(1.00109 -0.00471652 0)
(0.998171 0.00622596 0)
(1.002 -0.00405224 0)
(0.999164 0.00581188 0)
(1.00348 -0.00132386 0)
(1.00282 0.00345779 0)
(1.00408 0.000723801 0)
(1.00476 0.002028 0)
(1.00441 0.00112677 0)
(1.00473 0.00259725 0)
(1.00416 0.00100147 0)
(1.00301 0.00355439 0)
(1.0021 0.00242896 0)
(1.00032 0.00567047 0)
(0.998801 0.00768301 0)
(0.999206 0.00069108 0)
(1.00086 -0.00144577 0)
(1.00019 0.00112558 0)
(1.00041 -0.00317273 0)
(1.00098 0.00288238 0)
(1.00099 -0.00462267 0)
(0.998878 0.00611354 0)
(1.00209 -0.00395406 0)
(0.999746 0.00565161 0)
(1.00357 -0.00125321 0)
(1.0031 0.00331652 0)
(1.00411 0.000778303 0)
(1.00492 0.00192819 0)
(1.00456 0.00120831 0)
(1.00496 0.00249287 0)
(1.00448 0.00120366 0)
(1.00346 0.00342878 0)
(1.00267 0.0028538 0)
(1.00112 0.0056544 0)
(0.999784 0.0081094 0)
(0.999669 0.000687825 0)
(1.0007 -0.00144795 0)
(1.00042 0.00110949 0)
(1.00008 -0.00315473 0)
(1.00119 0.00284026 0)
(1.0009 -0.00452762 0)
(0.999489 0.00598639 0)
(1.00226 -0.00384222 0)
(1.00034 0.00547292 0)
(1.00377 -0.00115912 0)
(1.00344 0.0031532 0)
(1.00424 0.000857668 0)
(1.00511 0.00179984 0)
(1.00472 0.00131339 0)
(1.00516 0.00235878 0)
(1.00474 0.00142089 0)
(1.00382 0.00331011 0)
(1.00312 0.00323807 0)
(1.00177 0.00569852 0)
(1.00059 0.00842059 0)
(0.999911 0.000682912 0)
(1.0006 -0.0014495 0)
(1.00054 0.00109475 0)
(0.999837 -0.00313405 0)
(1.00129 0.00279118 0)
(1.00083 -0.00443128 0)
(0.99995 0.00584255 0)
(1.00243 -0.00371662 0)
(1.00084 0.00527328 0)
(1.00399 -0.0010407 0)
(1.00375 0.00296572 0)
(1.00438 0.000963852 0)
(1.00527 0.00164712 0)
(1.00487 0.00143739 0)
(1.0053 0.00220775 0)
(1.00493 0.00163814 0)
(1.00408 0.00322255 0)
(1.00345 0.00356301 0)
(1.00228 0.00580339 0)
(1.00123 0.00864208 0)
(1.00004 0.000677146 0)
(1.00054 -0.001451 0)
(1.00059 0.00108075 0)
(0.999687 -0.00311035 0)
(1.00133 0.00273533 0)
(1.00079 -0.00433209 0)
(1.00026 0.00568138 0)
(1.00256 -0.00357697 0)
(1.00121 0.00505179 0)
(1.00415 -0.00089825 0)
(1.004 0.00275288 0)
(1.00448 0.00109598 0)
(1.00539 0.00147284 0)
(1.00498 0.00157577 0)
(1.0054 0.00205577 0)
(1.00506 0.00183833 0)
(1.00427 0.00318334 0)
(1.0037 0.00382716 0)
(1.00268 0.00595625 0)
(1.00174 0.0088018 0)
(1.00011 0.000670843 0)
(1.00052 -0.00145267 0)
(1.00061 0.00106669 0)
(0.999614 -0.00308312 0)
(1.00133 0.00267242 0)
(1.0008 -0.0042278 0)
(1.00044 0.0055026 0)
(1.00266 -0.00342172 0)
(1.00147 0.00480597 0)
(1.00425 -0.00072954 0)
(1.00418 0.00251281 0)
(1.00454 0.00125019 0)
(1.00548 0.00128093 0)
(1.00505 0.00172047 0)
(1.00545 0.00191932 0)
(1.00515 0.00200563 0)
(1.00441 0.00320113 0)
(1.0039 0.00404548 0)
(1.00302 0.00613729 0)
(1.00217 0.00892729 0)
(1.00015 0.000664142 0)
(1.00051 -0.0014545 0)
(1.00061 0.0010518 0)
(0.999591 -0.00305181 0)
(1.00132 0.0026017 0)
(1.00084 -0.00411629 0)
(1.00055 0.00530597 0)
(1.00272 -0.00324902 0)
(1.00164 0.00453443 0)
(1.00429 -0.00053604 0)
(1.00431 0.00224906 0)
(1.00456 0.00141977 0)
(1.00554 0.00107807 0)
(1.00511 0.00185543 0)
(1.00549 0.00181542 0)
(1.00523 0.00212599 0)
(1.00453 0.0032738 0)
(1.00408 0.00423337 0)
(1.00332 0.00632025 0)
(1.00255 0.0090374 0)
(1.00016 0.000657106 0)
(1.00051 -0.00145643 0)
(1.0006 0.00103552 0)
(0.999596 -0.00301576 0)
(1.00131 0.00252239 0)
(1.00089 -0.00399594 0)
(1.00061 0.00509146 0)
(1.00275 -0.00305813 0)
(1.00177 0.00423789 0)
(1.00428 -0.000320537 0)
(1.00442 0.00196348 0)
(1.00456 0.00160017 0)
(1.00559 0.000880332 0)
(1.00515 0.00196574 0)
(1.00551 0.00176016 0)
(1.00531 0.00219679 0)
(1.00465 0.00338921 0)
(1.00425 0.00440424 0)
(1.00362 0.00648077 0)
(1.00291 0.00913555 0)
(1.00017 0.000649703 0)
(1.00051 -0.00145809 0)
(1.00059 0.00101677 0)
(0.999614 -0.00297409 0)
(1.0013 0.00243376 0)
(1.00095 -0.00386494 0)
(1.00066 0.0048577 0)
(1.00276 -0.00284691 0)
(1.00187 0.00391544 0)
(1.00425 -8.46031e-05 0)
(1.0045 0.00165978 0)
(1.00454 0.00178212 0)
(1.00562 0.000703674 0)
(1.00518 0.00203422 0)
(1.00553 0.00176009 0)
(1.00539 0.00222853 0)
(1.00477 0.00353291 0)
(1.00443 0.00457888 0)
(1.00391 0.00661277 0)
(1.00325 0.00922058 0)
(1.00018 0.000641836 0)
(1.00051 -0.00145882 0)
(1.00058 0.000994254 0)
(0.99964 -0.00292618 0)
(1.00129 0.00233392 0)
(1.00101 -0.00372028 0)
(1.0007 0.00460226 0)
(1.00277 -0.00261404 0)
(1.00196 0.00356888 0)
(1.00421 0.000162849 0)
(1.00458 0.00135149 0)
(1.00451 0.00194813 0)
(1.00564 0.000558067 0)
(1.00523 0.00204557 0)
(1.00554 0.00181002 0)
(1.00547 0.00223666 0)
(1.0049 0.00368448 0)
(1.0046 0.00477686 0)
(1.0042 0.0067258 0)
(1.00359 0.00929229 0)
(1.00018 0.00063343 0)
(1.00051 -0.00145832 0)
(1.00057 0.000967161 0)
(0.999669 -0.00287078 0)
(1.00129 0.00221997 0)
(1.00108 -0.00356081 0)
(1.00073 0.00432604 0)
(1.00276 -0.00236367 0)
(1.00205 0.00320602 0)
(1.00415 0.000409825 0)
(1.00466 0.00104755 0)
(1.00448 0.00208289 0)
(1.00565 0.000454722 0)
(1.00528 0.00199974 0)
(1.00556 0.00189734 0)
(1.00557 0.0022392 0)
(1.00504 0.00381911 0)
(1.00478 0.00500472 0)
(1.0045 0.00683772 0)
(1.00393 0.00935302 0)
(1.00018 0.000624778 0)
(1.00051 -0.00145606 0)
(1.00056 0.000933888 0)
(0.9997 -0.00280576 0)
(1.00129 0.00209158 0)
(1.00114 -0.00338902 0)
(1.00078 0.00403217 0)
(1.00275 -0.00209971 0)
(1.00215 0.00283029 0)
(1.00409 0.000658701 0)
(1.00473 0.000761581 0)
(1.00446 0.00217777 0)
(1.00566 0.000400395 0)
(1.00534 0.00190528 0)
(1.00557 0.002001 0)
(1.00567 0.00225171 0)
(1.00521 0.00391779 0)
(1.00496 0.00525302 0)
(1.00479 0.00696472 0)
(1.00427 0.0094078 0)
(1.00018 0.00061531 0)
(1.00051 -0.00144865 0)
(1.00055 0.000891224 0)
(0.999732 -0.00272884 0)
(1.00129 0.00194796 0)
(1.00121 -0.00320116 0)
(1.00082 0.003717 0)
(1.00273 -0.00182107 0)
(1.00225 0.00244583 0)
(1.00403 0.000901479 0)
(1.0048 0.000496133 0)
(1.00444 0.00222422 0)
(1.00565 0.000393307 0)
(1.00541 0.00177763 0)
(1.00559 0.00209745 0)
(1.00577 0.00228205 0)
(1.0054 0.00396685 0)
(1.00516 0.00549919 0)
(1.00508 0.00710917 0)
(1.00462 0.00946075 0)
(1.00017 0.00060174 0)
(1.00052 -0.00143173 0)
(1.00053 0.000834399 0)
(0.999766 -0.00263655 0)
(1.0013 0.00178098 0)
(1.00127 -0.00299046 0)
(1.00087 0.00337761 0)
(1.00271 -0.00153076 0)
(1.00234 0.0020594 0)
(1.00397 0.00111948 0)
(1.00486 0.000277071 0)
(1.00444 0.00220577 0)
(1.00564 0.000437918 0)
(1.00549 0.00162015 0)
(1.00562 0.00218819 0)
(1.00587 0.00232189 0)
(1.00561 0.00397356 0)
(1.00538 0.0057054 0)
(1.00538 0.00727068 0)
(1.00497 0.00952412 0)
(1.00017 0.000592598 0)
(1.00053 -0.00141905 0)
(1.00051 0.000777194 0)
(0.999803 -0.00254786 0)
(1.0013 0.00161277 0)
(1.00134 -0.00279098 0)
(1.00092 0.00305915 0)
(1.0027 -0.00127684 0)
(1.00244 0.00172714 0)
(1.00392 0.0012661 0)
(1.00492 0.000153708 0)
(1.00445 0.00208971 0)
(1.00561 0.00056243 0)
(1.00558 0.0014057 0)
(1.00566 0.00230457 0)
(1.00598 0.00233482 0)
(1.00584 0.00396769 0)
(1.00562 0.00577459 0)
(1.00567 0.00743262 0)
(1.00532 0.00957986 0)
(1.00015 0.000578711 0)
(1.00054 -0.00139009 0)
(1.00049 0.000698665 0)
(0.999841 -0.00243447 0)
(1.0013 0.00141745 0)
(1.00141 -0.00256786 0)
(1.00097 0.00271532 0)
(1.00268 -0.001006 0)
(1.00254 0.00138633 0)
(1.00387 0.00140704 0)
(1.00496 2.20803e-05 0)
(1.00447 0.00198003 0)
(1.00558 0.000653602 0)
(1.00568 0.00124272 0)
(1.00571 0.00233777 0)
(1.00608 0.0024153 0)
(1.00608 0.00388022 0)
(1.00588 0.00578681 0)
(1.00598 0.00744195 0)
(1.00569 0.00951841 0)
(1.00014 0.000559599 0)
(1.00056 -0.00134562 0)
(1.00047 0.000600518 0)
(0.99988 -0.00230286 0)
(1.0013 0.00120118 0)
(1.00147 -0.00233222 0)
(1.00102 0.00235849 0)
(1.00266 -0.000738218 0)
(1.00264 0.00105385 0)
(1.00382 0.00152097 0)
(1.00499 -9.84885e-05 0)
(1.0045 0.00187402 0)
(1.00553 0.000727788 0)
(1.00577 0.00112622 0)
(1.00578 0.00230655 0)
(1.00618 0.00256251 0)
(1.00631 0.00383229 0)
(1.00616 0.00582723 0)
(1.0063 0.00747509 0)
(1.0061 0.00949376 0)
(1.00012 0.000547704 0)
(1.00058 -0.00130558 0)
(1.00045 0.000504142 0)
(0.99992 -0.00218436 0)
(1.0013 0.00100111 0)
(1.00154 -0.00213459 0)
(1.00107 0.00206309 0)
(1.00264 -0.000548914 0)
(1.00273 0.000821553 0)
(1.00379 0.00153805 0)
(1.005 -0.000130145 0)
(1.00455 0.00168376 0)
(1.00549 0.000881844 0)
(1.00586 0.0010065 0)
(1.00587 0.0023337 0)
(1.00629 0.00272886 0)
(1.00655 0.00392007 0)
(1.00647 0.00586024 0)
(1.00662 0.00762054 0)
(1.0065 0.00947847 0)
(1.0001 0.000525329 0)
(1.00059 -0.0012413 0)
(1.00042 0.000383386 0)
(0.999958 -0.00204725 0)
(1.0013 0.000787799 0)
(1.00161 -0.00193581 0)
(1.00113 0.00177459 0)
(1.00262 -0.000372891 0)
(1.00281 0.000608175 0)
(1.00376 0.00154435 0)
(1.00501 -0.000135075 0)
(1.0046 0.00148274 0)
(1.00544 0.00105395 0)
(1.00595 0.000999885 0)
(1.00598 0.00238902 0)
(1.00641 0.00296851 0)
(1.00679 0.00404482 0)
(1.00679 0.00594134 0)
(1.00695 0.00774968 0)
(1.0069 0.00951208 0)
(1.00008 0.000506818 0)
(1.00061 -0.00117672 0)
(1.0004 0.000263184 0)
(0.999992 -0.00192325 0)
(1.00131 0.000592082 0)
(1.00167 -0.0017711 0)
(1.00118 0.00151469 0)
(1.0026 -0.00023078 0)
(1.00289 0.00041455 0)
(1.00373 0.00153387 0)
(1.005 -8.16073e-05 0)
(1.00467 0.00132035 0)
(1.00541 0.00124223 0)
(1.00604 0.00109435 0)
(1.00612 0.00244827 0)
(1.00653 0.00321123 0)
(1.00702 0.00418708 0)
(1.00713 0.00600875 0)
(1.00729 0.00783205 0)
(1.00728 0.00952659 0)
(1.00006 0.000486019 0)
(1.00062 -0.00110367 0)
(1.00038 0.000140906 0)
(1.00002 -0.00181321 0)
(1.00132 0.00040662 0)
(1.00173 -0.00163476 0)
(1.00124 0.0012786 0)
(1.00257 -0.000105535 0)
(1.00297 0.000245188 0)
(1.00372 0.00151183 0)
(1.00499 3.95719e-05 0)
(1.00475 0.00122359 0)
(1.00539 0.00144006 0)
(1.00612 0.00125018 0)
(1.00626 0.00250058 0)
(1.00667 0.00341617 0)
(1.00725 0.00433156 0)
(1.00747 0.00604016 0)
(1.00764 0.00785478 0)
(1.00764 0.00949637 0)
(1.00004 0.000465215 0)
(1.00062 -0.00102819 0)
(1.00035 2.07639e-05 0)
(1.00005 -0.00172548 0)
(1.00132 0.000234709 0)
(1.00178 -0.0015222 0)
(1.0013 0.00105314 0)
(1.00255 1.21929e-05 0)
(1.00305 0.00010483 0)
(1.00371 0.0014943 0)
(1.00497 0.000211583 0)
(1.00483 0.00116995 0)
(1.00538 0.00161427 0)
(1.00618 0.00143633 0)
(1.00642 0.00254488 0)
(1.00682 0.00357673 0)
(1.00747 0.00446112 0)
(1.0078 0.00604066 0)
(1.008 0.00781816 0)
(1.008 0.00941776 0)
(1.00003 0.000444928 0)
(1.00062 -0.000956089 0)
(1.00033 -8.34389e-05 0)
(1.00008 -0.00166659 0)
(1.00133 8.26404e-05 0)
(1.00184 -0.00143673 0)
(1.00137 0.000841113 0)
(1.00252 0.000132417 0)
(1.00312 2.8525e-05 0)
(1.00372 0.00148724 0)
(1.00495 0.000419052 0)
(1.00491 0.0011445 0)
(1.00539 0.00174313 0)
(1.00624 0.00161903 0)
(1.00658 0.00257569 0)
(1.00697 0.00368537 0)
(1.00769 0.00456289 0)
(1.00814 0.00601362 0)
(1.00837 0.00773091 0)
(1.00835 0.00929689 0)
(1.00001 0.000426238 0)
(1.00061 -0.000889519 0)
(1.00031 -0.000163959 0)
(1.0001 -0.00163185 0)
(1.00134 -6.41e-05 0)
(1.00188 -0.00135404 0)
(1.00144 0.000629805 0)
(1.00249 0.000278204 0)
(1.00319 4.523e-05 0)
(1.00374 0.00148555 0)
(1.00492 0.000640141 0)
(1.00499 0.0011466 0)
(1.00541 0.00183328 0)
(1.00629 0.00178527 0)
(1.00673 0.00260666 0)
(1.00714 0.00376026 0)
(1.0079 0.00465657 0)
(1.00846 0.00598387 0)
(1.00874 0.00761798 0)
(1.0087 0.00914763 0)
(0.999995 0.000409641 0)
(1.0006 -0.000836597 0)
(1.00028 -0.000215566 0)
(1.00011 -0.00161684 0)
(1.00136 -0.000207245 0)
(1.00193 -0.0012621 0)
(1.00151 0.000440695 0)
(1.00247 0.000432893 0)
(1.00325 0.000126348 0)
(1.00377 0.00147141 0)
(1.00489 0.000839844 0)
(1.00505 0.00116648 0)
(1.00545 0.00189181 0)
(1.00634 0.00193178 0)
(1.00689 0.0026476 0)
(1.00733 0.00381668 0)
(1.00812 0.00475115 0)
(1.00877 0.00596124 0)
(1.00911 0.00748434 0)
(1.00905 0.00896234 0)
(0.999981 0.000395722 0)
(1.00059 -0.000798922 0)
(1.00026 -0.00023646 0)
(1.00012 -0.0016055 0)
(1.00138 -0.000351916 0)
(1.00197 -0.0011684 0)
(1.0016 0.000311993 0)
(1.00246 0.000571381 0)
(1.00331 0.000237699 0)
(1.00381 0.00143906 0)
(1.00486 0.00100644 0)
(1.00511 0.001205 0)
(1.00549 0.00193819 0)
(1.00638 0.00206929 0)
(1.00704 0.00270536 0)
(1.00752 0.00386028 0)
(1.00833 0.00483865 0)
(1.00907 0.00594268 0)
(1.00948 0.00733189 0)
(1.00941 0.00873819 0)
(0.999968 0.000382399 0)
(1.00058 -0.000772437 0)
(1.00023 -0.000239473 0)
(1.00013 -0.00157196 0)
(1.0014 -0.000503912 0)
(1.00201 -0.00105444 0)
(1.00169 0.000233777 0)
(1.00246 0.000677701 0)
(1.00335 0.000359608 0)
(1.00385 0.00140383 0)
(1.00483 0.00114559 0)
(1.00516 0.00126168 0)
(1.00554 0.0019806 0)
(1.00643 0.0022016 0)
(1.00719 0.00277309 0)
(1.00773 0.00388721 0)
(1.00854 0.00490008 0)
(1.00935 0.00592016 0)
(1.00983 0.00716864 0)
(1.00976 0.00848545 0)
(0.999955 0.000372648 0)
(1.00057 -0.000765766 0)
(1.00021 -0.000229516 0)
(1.00013 -0.00150506 0)
(1.00143 -0.000641774 0)
(1.00205 -0.000920883 0)
(1.00178 0.00019127 0)
(1.00247 0.000747721 0)
(1.00339 0.000479211 0)
(1.00389 0.00137536 0)
(1.00481 0.00125987 0)
(1.00521 0.00132845 0)
(1.0056 0.00201893 0)
(1.00648 0.00232683 0)
(1.00733 0.00284301 0)
(1.00794 0.00389584 0)
(1.00876 0.00492604 0)
(1.00961 0.00589093 0)
(1.01016 0.0070088 0)
(1.01011 0.00822253 0)
(0.999944 0.000366904 0)
(1.00056 -0.000781863 0)
(1.00019 -0.000214154 0)
(1.00012 -0.00139735 0)
(1.00146 -0.00075086 0)
(1.00211 -0.000796818 0)
(1.00187 0.000177128 0)
(1.00248 0.000788996 0)
(1.00343 0.000590725 0)
(1.00392 0.0013622 0)
(1.00479 0.00135742 0)
(1.00525 0.00140491 0)
(1.00567 0.00205702 0)
(1.00654 0.00244262 0)
(1.00747 0.00291181 0)
(1.00815 0.00388747 0)
(1.00899 0.0049183 0)
(1.00987 0.00585284 0)
(1.01047 0.00686002 0)
(1.01045 0.0079618 0)
(0.999933 0.00036192 0)
(1.00055 -0.000811084 0)
(1.00017 -0.000204001 0)
(1.00011 -0.00124919 0)
(1.0015 -0.000829211 0)
(1.00217 -0.000690527 0)
(1.00196 0.000189441 0)
(1.00251 0.00081838 0)
(1.00346 0.000692932 0)
(1.00397 0.00136782 0)
(1.00478 0.00144625 0)
(1.00529 0.00148977 0)
(1.00575 0.00209662 0)
(1.0066 0.0025441 0)
(1.0076 0.00297696 0)
(1.00837 0.00386528 0)
(1.00923 0.00488096 0)
(1.01012 0.0057997 0)
(1.01076 0.00671792 0)
(1.01077 0.00770565 0)
(0.999923 0.000357773 0)
(1.00054 -0.000843505 0)
(1.00017 -0.000207063 0)
(1.00009 -0.00107032 0)
(1.00154 -0.000872194 0)
(1.00224 -0.000593761 0)
(1.00206 0.000229782 0)
(1.00254 0.000846365 0)
(1.00349 0.000786514 0)
(1.00401 0.00138775 0)
(1.00478 0.00152894 0)
(1.00533 0.00157629 0)
(1.00583 0.00213691 0)
(1.00667 0.00263013 0)
(1.00773 0.00304004 0)
(1.00858 0.0038357 0)
(1.00947 0.00481737 0)
(1.01036 0.00572435 0)
(1.01104 0.00657384 0)
(1.01107 0.00745447 0)
(0.999915 0.000351887 0)
(1.00054 -0.000871897 0)
(1.00018 -0.000232557 0)
(1.00008 -0.000871614 0)
(1.00158 -0.000865201 0)
(1.00232 -0.00050128 0)
(1.00216 0.000296474 0)
(1.00258 0.000876597 0)
(1.00353 0.000868409 0)
(1.00406 0.00141501 0)
(1.00478 0.00160717 0)
(1.00537 0.00165911 0)
(1.00592 0.00217438 0)
(1.00675 0.00270286 0)
(1.00785 0.00310413 0)
(1.00879 0.00380509 0)
(1.00972 0.00472851 0)
(1.01062 0.00561787 0)
(1.01131 0.00641654 0)
(1.01135 0.00720501 0)
(0.999908 0.000344332 0)
(1.00054 -0.000890244 0)
(1.0002 -0.000286203 0)
(1.00007 -0.000666653 0)
(1.00162 -0.000806274 0)
(1.00241 -0.000411605 0)
(1.00226 0.000387239 0)
(1.00262 0.000919679 0)
(1.00357 0.000940063 0)
(1.00411 0.00144547 0)
(1.00479 0.00168355 0)
(1.00541 0.00173808 0)
(1.00601 0.00220364 0)
(1.00684 0.00276044 0)
(1.00797 0.00316947 0)
(1.00899 0.00377948 0)
(1.00997 0.00461891 0)
(1.01087 0.00547516 0)
(1.01156 0.00623607 0)
(1.01161 0.00695145 0)
(0.999902 0.000334299 0)
(1.00054 -0.000893053 0)
(1.00025 -0.000364013 0)
(1.00007 -0.000465949 0)
(1.00166 -0.000704804 0)
(1.00251 -0.000323297 0)
(1.00236 0.000493347 0)
(1.00267 0.000983906 0)
(1.00362 0.0010063 0)
(1.00417 0.00147526 0)
(1.00481 0.00175883 0)
(1.00544 0.00181869 0)
(1.00611 0.0022253 0)
(1.00694 0.00279715 0)
(1.00808 0.0032301 0)
(1.00917 0.00376299 0)
(1.01022 0.0045001 0)
(1.01113 0.00530096 0)
(1.01182 0.00602774 0)
(1.01186 0.00668754 0)
(0.999898 0.000323662 0)
(1.00054 -0.00088484 0)
(1.0003 -0.000446513 0)
(1.00009 -0.000269633 0)
(1.00169 -0.000564647 0)
(1.00262 -0.000234268 0)
(1.00248 0.000600158 0)
(1.00272 0.00107082 0)
(1.00367 0.00107588 0)
(1.00424 0.00150202 0)
(1.00484 0.00183189 0)
(1.00548 0.00190563 0)
(1.00622 0.00224569 0)
(1.00706 0.00280927 0)
(1.0082 0.00327372 0)
(1.00934 0.00375363 0)
(1.01045 0.0043866 0)
(1.01138 0.00511126 0)
(1.01207 0.00579654 0)
(1.01211 0.00641143 0)
(0.999895 0.000311091 0)
(1.00053 -0.000853065 0)
(1.00038 -0.000525887 0)
(1.00012 -8.09727e-05 0)
(1.00172 -0.000386232 0)
(1.00273 -0.000138136 0)
(1.0026 0.000704515 0)
(1.00277 0.00117929 0)
(1.00371 0.00115971 0)
(1.00432 0.00152848 0)
(1.00488 0.00189831 0)
(1.00552 0.00199788 0)
(1.00632 0.00226891 0)
(1.00719 0.00279755 0)
(1.00833 0.00328694 0)
(1.00949 0.00373968 0)
(1.01066 0.00428211 0)
(1.01163 0.00491851 0)
(1.01232 0.00554828 0)
(1.01234 0.00612073 0)
(0.999895 0.00029536 0)
(1.00053 -0.000788092 0)
(1.00046 -0.000585171 0)
(1.00017 7.99553e-05 0)
(1.00175 -0.000188964 0)
(1.00284 -4.37616e-05 0)
(1.00273 0.000796056 0)
(1.00282 0.00129496 0)
(1.00375 0.00125582 0)
(1.0044 0.0015578 0)
(1.00493 0.00195339 0)
(1.00556 0.00209125 0)
(1.00641 0.00229975 0)
(1.00732 0.00276913 0)
(1.00846 0.00326595 0)
(1.00964 0.0037087 0)
(1.01085 0.00417978 0)
(1.01186 0.00472507 0)
(1.01256 0.0052846 0)
(1.01257 0.00580955 0)
(0.999897 0.000274313 0)
(1.00052 -0.000693107 0)
(1.00056 -0.00061388 0)
(1.00024 0.000208046 0)
(1.00178 9.57389e-06 0)
(1.00294 4.78364e-05 0)
(1.00287 0.000872118 0)
(1.00288 0.00141146 0)
(1.00379 0.00136134 0)
(1.00448 0.00159292 0)
(1.005 0.00199686 0)
(1.00559 0.00217771 0)
(1.00648 0.00233849 0)
(1.00745 0.00273036 0)
(1.0086 0.00321296 0)
(1.00978 0.00365277 0)
(1.01102 0.00407219 0)
(1.01206 0.00453224 0)
(1.01278 0.00501237 0)
(1.01279 0.00548086 0)
(0.999901 0.000259134 0)
(1.0005 -0.000590725 0)
(1.00066 -0.0006179 0)
(1.00033 0.000326573 0)
(1.0018 0.000220211 0)
(1.00304 0.000155563 0)
(1.00302 0.000941673 0)
(1.00295 0.00153181 0)
(1.00382 0.00148146 0)
(1.00455 0.00164097 0)
(1.00507 0.00203941 0)
(1.00563 0.00225897 0)
(1.00655 0.00238711 0)
(1.00757 0.00269105 0)
(1.00875 0.00313482 0)
(1.00993 0.00356877 0)
(1.01117 0.0039533 0)
(1.01224 0.00434046 0)
(1.01298 0.00473965 0)
(1.01299 0.00514292 0)
(0.999907 0.000245665 0)
(1.00049 -0.000472489 0)
(1.00076 -0.000593651 0)
(1.00043 0.000426876 0)
(1.00182 0.000436741 0)
(1.00313 0.000284486 0)
(1.00317 0.00100307 0)
(1.00302 0.00164737 0)
(1.00384 0.00161282 0)
(1.00462 0.00169548 0)
(1.00515 0.00207801 0)
(1.00567 0.00233229 0)
(1.00659 0.00244099 0)
(1.00767 0.00265747 0)
(1.00889 0.00303622 0)
(1.01007 0.00345276 0)
(1.01131 0.00381437 0)
(1.01239 0.0041451 0)
(1.01315 0.00446908 0)
(1.01317 0.00480212 0)
(0.999915 0.000225991 0)
(1.00047 -0.000322388 0)
(1.00086 -0.000541776 0)
(1.00055 0.000501839 0)
(1.00184 0.00064763 0)
(1.00321 0.000435899 0)
(1.00333 0.0010607 0)
(1.0031 0.0017526 0)
(1.00385 0.00175507 0)
(1.00467 0.00175753 0)
(1.00524 0.00210355 0)
(1.00571 0.00239456 0)
(1.00663 0.00249456 0)
(1.00774 0.00263364 0)
(1.00901 0.00292328 0)
(1.01021 0.00330249 0)
(1.01144 0.00364514 0)
(1.01251 0.00393603 0)
(1.01329 0.00419639 0)
(1.01332 0.00445985 0)
(0.999925 0.000209787 0)
(1.00044 -0.000164937 0)
(1.00095 -0.000459223 0)
(1.00068 0.000568964 0)
(1.00187 0.00085254 0)
(1.00327 0.000612279 0)
(1.00348 0.00112794 0)
(1.00319 0.00185286 0)
(1.00385 0.00191035 0)
(1.00471 0.00184312 0)
(1.00532 0.002119 0)
(1.00576 0.00244341 0)
(1.00664 0.00254863 0)
(1.00779 0.00262177 0)
(1.00911 0.00280943 0)
(1.01033 0.00312565 0)
(1.01156 0.00344166 0)
(1.01262 0.00370371 0)
(1.0134 0.00391462 0)
(1.01344 0.00411412 0)
(0.999936 0.000197615 0)
(1.00042 -1.65479e-05 0)
(1.00102 -0.000346808 0)
(1.00081 0.000637769 0)
(1.0019 0.00104966 0)
(1.00331 0.000807942 0)
(1.00362 0.00121397 0)
(1.00329 0.00195122 0)
(1.00385 0.00207226 0)
(1.00472 0.00195394 0)
(1.00539 0.00213341 0)
(1.00581 0.00246883 0)
(1.00664 0.00259986 0)
(1.00779 0.00262117 0)
(1.00917 0.00270864 0)
(1.01043 0.00293706 0)
(1.01167 0.00320841 0)
(1.01271 0.00344367 0)
(1.01347 0.00361796 0)
(1.01352 0.00376309 0)
(0.999948 0.000193752 0)
(1.00039 0.000114435 0)
(1.00109 -0.000208353 0)
(1.00095 0.000710631 0)
(1.00194 0.00124226 0)
(1.00333 0.00101548 0)
(1.00376 0.00132166 0)
(1.0034 0.00204932 0)
(1.00384 0.00224213 0)
(1.0047 0.00208709 0)
(1.00544 0.00216279 0)
(1.00587 0.00246818 0)
(1.00664 0.0026367 0)
(1.00777 0.00262747 0)
(1.00918 0.00262469 0)
(1.0105 0.00274633 0)
(1.01175 0.00295049 0)
(1.01277 0.00314814 0)
(1.01352 0.00329207 0)
(1.01356 0.00339374 0)
(0.999961 0.000192813 0)
(1.00036 0.000246111 0)
(1.00115 -5.08976e-05 0)
(1.00109 0.000791067 0)
(1.00198 0.00142993 0)
(1.00335 0.00124024 0)
(1.00388 0.00145068 0)
(1.00351 0.00214827 0)
(1.00383 0.00241784 0)
(1.00466 0.00224099 0)
(1.00547 0.00221417 0)
(1.00592 0.00244779 0)
(1.00664 0.00264149 0)
(1.00771 0.0026264 0)
(1.00914 0.00255271 0)
(1.01051 0.00256222 0)
(1.0118 0.0026808 0)
(1.01282 0.00282138 0)
(1.01354 0.00293251 0)
(1.01356 0.00299899 0)
(0.999975 0.000192042 0)
(1.00033 0.000380655 0)
(1.00119 0.000122218 0)
(1.00123 0.000894291 0)
(1.00203 0.00161091 0)
(1.00334 0.00148918 0)
(1.00397 0.00160028 0)
(1.00363 0.00225136 0)
(1.00383 0.00258997 0)
(1.00459 0.00242298 0)
(1.00546 0.00229393 0)
(1.00595 0.00243377 0)
(1.00663 0.00261377 0)
(1.00764 0.00261021 0)
(1.00906 0.00248343 0)
(1.01047 0.00239277 0)
(1.0118 0.00240712 0)
(1.01283 0.00247476 0)
(1.01354 0.00253995 0)
(1.01354 0.00257269 0)
(0.999988 0.000199463 0)
(1.00031 0.000511095 0)
(1.00122 0.000313243 0)
(1.00137 0.00100755 0)
(1.00208 0.00178382 0)
(1.00332 0.00175106 0)
(1.00405 0.00177828 0)
(1.00374 0.00235958 0)
(1.00383 0.00275367 0)
(1.0045 0.00262831 0)
(1.0054 0.0024109 0)
(1.00596 0.00244164 0)
(1.00661 0.00256968 0)
(1.00754 0.00256976 0)
(1.00893 0.00240707 0)
(1.01036 0.00223122 0)
(1.01173 0.00213513 0)
(1.01278 0.00211659 0)
(1.01349 0.00212165 0)
(1.01348 0.00211407 0)
(1 0.000208982 0)
(1.00028 0.000639632 0)
(1.00124 0.00052166 0)
(1.00149 0.00113652 0)
(1.00215 0.00195849 0)
(1.0033 0.00202208 0)
(1.00409 0.00199539 0)
(1.00385 0.0024832 0)
(1.00384 0.00291293 0)
(1.00439 0.00284406 0)
(1.0053 0.00257187 0)
(1.00591 0.00248161 0)
(1.00657 0.00253189 0)
(1.00743 0.00250654 0)
(1.00875 0.00232035 0)
(1.01018 0.00206938 0)
(1.01159 0.00187162 0)
(1.01268 0.00175442 0)
(1.01339 0.00168855 0)
(1.01337 0.00163014 0)
(1.00001 0.000224859 0)
(1.00026 0.00076098 0)
(1.00124 0.000736608 0)
(1.0016 0.00129017 0)
(1.00221 0.00213959 0)
(1.00326 0.002304 0)
(1.00411 0.00224866 0)
(1.00393 0.00263717 0)
(1.00385 0.00307436 0)
(1.00426 0.00306461 0)
(1.00514 0.00276801 0)
(1.00581 0.00256444 0)
(1.00648 0.00251319 0)
(1.00729 0.00243383 0)
(1.00853 0.00221716 0)
(1.00993 0.00190133 0)
(1.01137 0.0016084 0)
(1.01249 0.00138723 0)
(1.01323 0.00123748 0)
(1.01322 0.00111914 0)
(1.00002 0.00024913 0)
(1.00024 0.000874564 0)
(1.00123 0.000958651 0)
(1.0017 0.0014571 0)
(1.00228 0.00232219 0)
(1.00322 0.00259408 0)
(1.00409 0.00253358 0)
(1.00399 0.00282546 0)
(1.00385 0.00324375 0)
(1.00413 0.0032878 0)
(1.00495 0.00298871 0)
(1.00564 0.00268974 0)
(1.00634 0.00252222 0)
(1.0071 0.00236473 0)
(1.00827 0.00209803 0)
(1.00962 0.00172174 0)
(1.01106 0.00133489 0)
(1.01222 0.00100824 0)
(1.01299 0.000761682 0)
(1.01299 0.000571775 0)
(1.00003 0.000280191 0)
(1.00022 0.000979215 0)
(1.00121 0.00118604 0)
(1.00178 0.00165289 0)
(1.00236 0.00250985 0)
(1.00318 0.00288797 0)
(1.00404 0.00284995 0)
(1.00402 0.00304897 0)
(1.00385 0.00343245 0)
(1.00399 0.00351559 0)
(1.00471 0.00323617 0)
(1.00541 0.00285694 0)
(1.00613 0.00257161 0)
(1.00685 0.00231327 0)
(1.00794 0.00197574 0)
(1.00922 0.00152806 0)
(1.01065 0.00104684 0)
(1.01183 0.000605296 0)
(1.01265 0.000252274 0)
(1.01269 -2.49614e-05 0)
(1.00004 0.000314262 0)
(1.00021 0.00108539 0)
(1.00118 0.00142269 0)
(1.00184 0.00186834 0)
(1.00243 0.00270579 0)
(1.00313 0.00317557 0)
(1.00396 0.00319134 0)
(1.00401 0.00331753 0)
(1.00383 0.00364646 0)
(1.00384 0.0037651 0)
(1.00444 0.00350876 0)
(1.0051 0.00307844 0)
(1.00583 0.00267354 0)
(1.00652 0.00229826 0)
(1.00753 0.00186565 0)
(1.00873 0.00132593 0)
(1.01012 0.000738537 0)
(1.01133 0.000168176 0)
(1.01218 -0.000312422 0)
(1.01227 -0.000706812 0)
(1.00004 0.00036218 0)
(1.0002 0.00118102 0)
(1.00115 0.00166677 0)
(1.00188 0.00210349 0)
(1.00249 0.00290982 0)
(1.00309 0.00345568 0)
(1.00386 0.00355376 0)