/*--------------------------------*- C++ -*----------------------------------*\
| =========                 |                                                 |
| \\      /  F ield         | OpenFOAM: The Open Source CFD Toolbox           |
|  \\    /   O peration     | Version:  v2012                                 |
|   \\  /    A nd           | Website:  www.openfoam.com                      |
|    \\/     M anipulation  |                                                 |
\*---------------------------------------------------------------------------*/
FoamFile
{
    version     2.0;
    format      ascii;
    class       volScalarField;
    location    "1.8";
    object      p;
}
// * * * * * * * * * * * * * * * * * * * * * * * * * * * * * * * * * * * * * //

dimensions      [0 2 -2 0 0 0 0];


internalField   nonuniform List<scalar> 
17600
(
9.17037e-12
-0.000325917
-0.000516039
-0.00180238
-0.00214158
-0.00265228
-0.00294254
-0.00348634
-0.004243
-0.00398323
-0.00459041
-0.00460451
-0.00478826
-0.0045381
-0.00447976
-0.00372844
-0.00317134
-0.00155532
0.000293985
0.00407946
4.25782e-07
-0.000326985
-0.000515245
-0.00180363
-0.00213987
-0.00265441
-0.00294134
-0.00348928
-0.00424189
-0.00398609
-0.00458893
-0.00461018
-0.00478612
-0.00454916
-0.0044759
-0.00375565
-0.00316277
-0.00162161
0.000306725
0.00376462
6.63539e-07
-0.000328709
-0.00051405
-0.00180572
-0.00213765
-0.00265776
-0.00293915
-0.00349294
-0.00423988
-0.00399025
-0.0045869
-0.00461796
-0.00478334
-0.0045624
-0.00447145
-0.00378454
-0.00315359
-0.00168979
0.00030359
0.00334059
3.74177e-07
-0.000330857
-0.00051308
-0.0018088
-0.00213617
-0.00266123
-0.00293637
-0.00349546
-0.00423748
-0.00399419
-0.0045852
-0.00462627
-0.00478066
-0.00457653
-0.00446732
-0.00381478
-0.00314665
-0.00175875
0.000270661
0.00292676
-4.52511e-07
-0.000333521
-0.000512378
-0.00181311
-0.00213494
-0.00266455
-0.00293282
-0.00349683
-0.00423481
-0.00399826
-0.00458369
-0.00463545
-0.00477777
-0.00459229
-0.00446296
-0.00384812
-0.00314159
-0.00183253
0.000207082
0.00253511
-1.77911e-06
-0.000336687
-0.000511807
-0.0018185
-0.00213332
-0.0026676
-0.00292831
-0.0034973
-0.00423195
-0.00400278
-0.0045821
-0.0046457
-0.00477453
-0.00460974
-0.0044584
-0.00388433
-0.00313948
-0.00191144
0.000113829
0.00216722
-3.52969e-06
-0.000340224
-0.00051124
-0.00182461
-0.00213111
-0.0026703
-0.00292282
-0.00349716
-0.00422896
-0.00400771
-0.00458025
-0.004657
-0.00477091
-0.00462872
-0.00445406
-0.0039227
-0.00314252
-0.00199436
-8.34517e-06
0.00181851
-5.58026e-06
-0.000344004
-0.00051059
-0.00183111
-0.00212841
-0.0026726
-0.0029165
-0.00349665
-0.00422587
-0.00401304
-0.00457809
-0.00466932
-0.004767
-0.00464915
-0.00445057
-0.00396246
-0.00315327
-0.00207987
-0.00015886
0.00148274
-7.79788e-06
-0.000347962
-0.00050981
-0.00183788
-0.00212542
-0.00267455
-0.00290956
-0.00349594
-0.00422271
-0.00401874
-0.00457564
-0.00468266
-0.00476298
-0.0046708
-0.00444874
-0.00400272
-0.00317405
-0.00216727
-0.000336451
0.00115369
-1.00809e-05
-0.000352087
-0.000508889
-0.00184491
-0.00212236
-0.00267616
-0.00290218
-0.00349509
-0.00421951
-0.00402479
-0.00457298
-0.00469694
-0.00475913
-0.00469329
-0.0044495
-0.0040426
-0.00320668
-0.00225667
-0.000538599
0.000825794
-1.23679e-05
-0.0003564
-0.000507842
-0.00185226
-0.00211936
-0.00267742
-0.00289451
-0.00349409
-0.00421633
-0.00403116
-0.00457017
-0.004712
-0.00475583
-0.00471602
-0.00445395
-0.0040815
-0.00325245
-0.00234931
-0.000761487
0.000494706
-1.46225e-05
-0.000360918
-0.000506695
-0.00185995
-0.00211645
-0.00267828
-0.00288666
-0.00349285
-0.00421326
-0.00403774
-0.00456739
-0.0047276
-0.00475355
-0.0047384
-0.00446317
-0.00411914
-0.0033119
-0.00244759
-0.00100044
0.000157781
-1.68157e-05
-0.00036565
-0.000505474
-0.00186795
-0.00211366
-0.0026787
-0.00287872
-0.00349127
-0.00421039
-0.00404442
-0.00456487
-0.00474336
-0.00475283
-0.00475989
-0.00447803
-0.00415588
-0.00338469
-0.00255463
-0.00125087
-0.000185892
-1.89178e-05
-0.000370595
-0.000504202
-0.00187619
-0.00211101
-0.00267864
-0.00287079
-0.00348926
-0.00420789
-0.00405099
-0.00456293
-0.00475893
-0.00475419
-0.00478012
-0.0044991
-0.00419287
-0.00346955
-0.00267352
-0.00150933
-0.000535971
-2.08983e-05
-0.000375749
-0.000502899
-0.00188455
-0.00210856
-0.00267804
-0.00286299
-0.00348665
-0.00420596
-0.00405724
-0.00456184
-0.00477403
-0.0047581
-0.00479897
-0.00452643
-0.00423204
-0.00356477
-0.00280656
-0.00177397
-0.000891331
-2.2729e-05
-0.000381101
-0.000501581
-0.00189294
-0.00210638
-0.00267681
-0.00285548
-0.00348325
-0.00420486
-0.00406291
-0.00456187
-0.00478844
-0.00476483
-0.00481673
-0.00455965
-0.00427564
-0.00366898
-0.00295516
-0.00204411
-0.0012505
-2.43874e-05
-0.000386634
-0.000500267
-0.00190125
-0.00210459
-0.00267481
-0.00284847
-0.00347882
-0.00420488
-0.00406775
-0.00456322
-0.00480203
-0.0047744
-0.00483423
-0.00459793
-0.00432572
-0.00378174
-0.00311973
-0.00231964
-0.00161219
-2.58593e-05
-0.000392318
-0.000498975
-0.00190935
-0.00210332
-0.00267188
-0.00284219
-0.00347311
-0.0042063
-0.0040716
-0.00456601
-0.00481493
-0.00478646
-0.00485273
-0.00464043
-0.0043838
-0.0039034
-0.00329965
-0.00260078
-0.00197532
-2.71414e-05
-0.000398108
-0.000497733
-0.00191711
-0.00210275
-0.00266781
-0.00283691
-0.00346583
-0.00420934
-0.00407441
-0.0045701
-0.00482759
-0.00480032
-0.00487361
-0.00468671
-0.00445091
-0.00403485
-0.00349384
-0.00288767
-0.00233894
-2.82427e-05
-0.000403926
-0.000496582
-0.00192437
-0.00210308
-0.00266236
-0.00283294
-0.00345676
-0.00421414
-0.00407633
-0.00457507
-0.00484077
-0.00481501
-0.00489791
-0.00473706
-0.00452764
-0.00417741
-0.00370152
-0.00318017
-0.00270233
-2.9189e-05
-0.000409664
-0.000495574
-0.00193093
-0.00210456
-0.00265529
-0.00283052
-0.0034457
-0.00422072
-0.00407777
-0.00458023
-0.00485545
-0.0048296
-0.0049261
-0.00479238
-0.00461393
-0.00433237
-0.00392281
-0.00347816
-0.00306503
-3.00265e-05
-0.000415177
-0.000494787
-0.00193656
-0.00210746
-0.00264639
-0.00282987
-0.00343262
-0.00422891
-0.00407934
-0.00458463
-0.00487264
-0.00484362
-0.0049582
-0.00485412
-0.00470929
-0.00450037
-0.00415893
-0.00378209
-0.00342675
-3.08217e-05
-0.000420269
-0.000494332
-0.00194102
-0.00211204
-0.00263546
-0.00283122
-0.00341766
-0.00423828
-0.00408177
-0.004587
-0.00489326
-0.00485731
-0.00499385
-0.00492378
-0.00481332
-0.00468119
-0.00441174
-0.00409365
-0.00378746
-3.16723e-05
-0.000424671
-0.000494327
-0.0019441
-0.00211855
-0.00262235
-0.0028346
-0.00340123
-0.00424806
-0.00408597
-0.00458607
-0.00491771
-0.00487167
-0.00503228
-0.00500255
-0.00492604
-0.00487368
-0.00468259
-0.00441598
-0.00414803
-3.27189e-05
-0.000428052
-0.000494858
-0.00194562
-0.00212723
-0.0026071
-0.00283978
-0.00338408
-0.00425701
-0.0040929
-0.00458127
-0.00494568
-0.00488823
-0.00507257
-0.00509146
-0.00504822
-0.00507566
-0.00497126
-0.00475252
-0.00451101
-3.41375e-05
-0.000430056
-0.00049599
-0.00194539
-0.00213822
-0.00258991
-0.00284637
-0.00336699
-0.0042637
-0.00410326
-0.00457289
-0.00497586
-0.00490868
-0.00511388
-0.00519119
-0.00518209
-0.00528503
-0.00527521
-0.00510565
-0.00488137
-3.61232e-05
-0.000430282
-0.000497776
-0.00194331
-0.00215153
-0.00257119
-0.00285377
-0.00335068
-0.00426736
-0.00411743
-0.00456195
-0.0050069
-0.00493463
-0.00515602
-0.00530166
-0.00533082
-0.00550149
-0.00558989
-0.00547448
-0.00526286
-3.89055e-05
-0.00042825
-0.000500218
-0.00193951
-0.00216686
-0.00255151
-0.00286119
-0.00333596
-0.00426759
-0.00413541
-0.00454929
-0.00503824
-0.00496801
-0.00520022
-0.00542388
-0.00549721
-0.00572399
-0.00590949
-0.0058577
-0.00565598
-4.27869e-05
-0.000423544
-0.000503101
-0.00193421
-0.0021838
-0.002529
-0.00286788
-0.00332342
-0.00426431
-0.00415685
-0.00453586
-0.00506934
-0.00501157
-0.00525112
-0.00555799
-0.00568198
-0.00595096
-0.00622771
-0.00625088
-0.00605979
-4.80625e-05
-0.000415831
-0.000505989
-0.00192774
-0.00220199
-0.00251083
-0.00287314
-0.00331329
-0.00425832
-0.00418151
-0.00452337
-0.00510148
-0.00506875
-0.00531084
-0.00570031
-0.0058843
-0.00618407
-0.00654036
-0.00664742
-0.00647381
-5.49538e-05
-0.000404796
-0.000508327
-0.00192075
-0.00222077
-0.00249469
-0.00287672
-0.00330554
-0.00425061
-0.00420996
-0.00451452
-0.00513646
-0.00514055
-0.00537714
-0.00584391
-0.00610169
-0.00642743
-0.00684766
-0.0070411
-0.00689391
-6.36327e-05
-0.000390357
-0.000509278
-0.00191409
-0.00223945
-0.00248089
-0.00287902
-0.00330008
-0.00424228
-0.00424346
-0.00451163
-0.00517514
-0.00522605
-0.00544853
-0.00598275
-0.00632909
-0.00668394
-0.00715302
-0.00742818
-0.00731472
-7.42102e-05
-0.000372751
-0.000507644
-0.00190822
-0.00225783
-0.00246946
-0.00288139
-0.00329749
-0.00423471
-0.00428298
-0.00451526
-0.00521428
-0.00532326
-0.00552716
-0.00611442
-0.00656079
-0.0069549
-0.00746045
-0.00780665
-0.00773101
-8.71971e-05
-0.000352409
-0.000502045
-0.00190331
-0.00227626
-0.00246013
-0.00288627
-0.00329928
-0.00422885
-0.0043289
-0.00452483
-0.0052489
-0.00542879
-0.00561679
-0.00624022
-0.00679164
-0.00723906
-0.00777315
-0.00817611
-0.00813847
-0.000101539
-0.000330067
-0.000491097
-0.00189921
-0.0022956
-0.00245289
-0.00289555
-0.00330685
-0.00422398
-0.00438044
-0.00454085
-0.00527596
-0.00553903
-0.00572175
-0.00636377
-0.00701719
-0.00753258
-0.00809291
-0.00853786
-0.00853433
-0.000117212
-0.000306865
-0.000473858
-0.00189503
-0.00231725
-0.00244802
-0.00291063
-0.0033211
-0.00421832
-0.00443574
-0.00456534
-0.0052956
-0.00564986
-0.0058443
-0.00649015
-0.00723477
-0.00783045
-0.00841974
-0.00889391
-0.00891741
-0.000133738
-0.000283984
-0.000449765
-0.00188954
-0.00234296
-0.00244602
-0.00293163
-0.00334306
-0.0042102
-0.00449218
-0.00460084
-0.0053105
-0.00575653
-0.00598305
-0.00662473
-0.00744461
-0.00812751
-0.00875131
-0.0092456
-0.00928786
-0.000150521
-0.000262516
-0.000419152
-0.00188143
-0.00237425
-0.00244765
-0.00295856
-0.00337389
-0.00419933
-0.00454642
-0.00464899
-0.00532484
-0.00585505
-0.00613357
-0.00677156
-0.00764933
-0.00841925
-0.00908334
-0.00959285
-0.00964658
-0.000166869
-0.000243598
-0.000383262
-0.00186938
-0.00241204
-0.00245363
-0.00298869
-0.0034146
-0.0041873
-0.00459484
-0.00470993
-0.00534368
-0.00594366
-0.00629029
-0.00693178
-0.0078527
-0.00870291
-0.00941139
-0.00993448
-0.0099944
-0.000181851
-0.000228303
-0.000343904
-0.00185228
-0.00245679
-0.00246456
-0.0030185
-0.00346566
-0.00417701
-0.00463403
-0.00478154
-0.00537252
-0.00602329
-0.00644726
-0.00710376
-0.00805772
-0.008978
-0.00973231
-0.0102688
-0.0103313
-0.000194384
-0.000217435
-0.000303442
-0.00182926
-0.00250846
-0.00248131
-0.00304505
-0.00352635
-0.00417269
-0.00466185
-0.00485945
-0.00541607
-0.00609764
-0.00659947
-0.00728384
-0.00826573
-0.00924567
-0.0100447
-0.0105941
-0.0106559
-0.00020353
-0.000211418
-0.000264478
-0.00179969
-0.00256685
-0.00250568
-0.00306568
-0.00359441
-0.00417887
-0.00467876
-0.00493815
-0.00547623
-0.00617223
-0.00674418
-0.00746692
-0.00847616
-0.00950731
-0.0103482
-0.0109088
-0.0109664
-0.000208619
-0.000210408
-0.000229485
-0.00176334
-0.00263161
-0.00254027
-0.00307862
-0.00366622
-0.00419939
-0.00468796
-0.00501153
-0.00555064
-0.00625245
-0.00688172
-0.00764798
-0.00868682
-0.00976349
-0.0106429
-0.0112122
-0.0112613
-0.000209188
-0.000214267
-0.000200781
-0.00172057
-0.00270104
-0.00258809
-0.00308377
-0.00373672
-0.00423642
-0.00469443
-0.00507451
-0.00563396
-0.00634192
-0.00701506
-0.00782391
-0.00889459
-0.0100135
-0.0109285
-0.0115039
-0.0115397
-0.00020486
-0.000222688
-0.000180756
-0.00167211
-0.0027733
-0.00265221
-0.00308276
-0.00379955
-0.00428965
-0.00470413
-0.00512484
-0.00571998
-0.00644093
-0.00714793
-0.00799395
-0.00909593
-0.010255
-0.0112043
-0.0117846
-0.0118025
-0.000195318
-0.000235172
-0.000172106
-0.00161905
-0.0028454
-0.00273512
-0.00307892
-0.00384823
-0.00435566
-0.00472345
-0.00516365
-0.00580213
-0.00654722
-0.00728314
-0.00815825
-0.00928749
-0.010485
-0.011469
-0.0120549
-0.0120517
-0.000180737
-0.000250863
-0.000177356
-0.00156323
-0.00291322
-0.00283807
-0.00307791
-0.00387818
-0.00442851
-0.00475764
-0.00519529
-0.005875
-0.0066566
-0.00742162
-0.00831732
-0.00946674
-0.0106997
-0.0117205
-0.0123155
-0.0122899
-0.000161945
-0.000268847
-0.000198249
-0.00150716
-0.00297189
-0.00295997
-0.00308732
-0.00388846
-0.00450051
-0.00480884
-0.00522598
-0.00593597
-0.0067635
-0.00756211
-0.00847191
-0.00963234
-0.0108956
-0.0119555
-0.0125655
-0.0125193
-0.000139799
-0.000288302
-0.000236081
-0.00145499
-0.00301666
-0.0030972
-0.00311533
-0.0038822
-0.00456288
-0.00487457
-0.0052619
-0.00598576
-0.00686213
-0.00770146
-0.0086228
-0.00978453
-0.0110701
-0.0121692
-0.0128014
-0.0127399
-0.000115546
-0.000308092
-0.000291577
-0.00141117
-0.00304398
-0.00324448
-0.00316856
-0.00386548
-0.00460783
-0.00494846
-0.00530744
-0.00602741
-0.00694787
-0.00783525
-0.00877034
-0.00992513
-0.0112219
-0.0123567
-0.0130174
-0.0129492
-9.13747e-05
-0.000327522
-0.00036398
-0.00138036
-0.00305305
-0.00339479
-0.00325023
-0.00384612
-0.0046313
-0.00502298
-0.00536363
-0.00606488
-0.00701815
-0.00795827
-0.00891336
-0.0100564
-0.0113522
-0.0125147
-0.0132073
-0.013142
-6.99472e-05
-0.000346441
-0.000450695
-0.0013664
-0.00303905
-0.00353991
-0.00336008
-0.00383385
-0.00463386
-0.00508978
-0.00542745
-0.00610112
-0.00707231
-0.00806495
-0.00904797
-0.0101796
-0.0114631
-0.0126422
-0.0133659
-0.0133127
-5.39512e-05
-0.000364907
-0.000548374
-0.0013736
-0.00301683
-0.00367128
-0.00349421
-0.00383874
-0.00462028
-0.00514107
-0.00549325
-0.00613691
-0.00711082
-0.00815013
-0.00916805
-0.0102935
-0.0115569
-0.0127404
-0.0134907
-0.0134558
-4.58798e-05
-0.000383593
-0.000654114
-0.00140503
-0.00298717
-0.00378191
-0.00364567
-0.00386807
-0.00459733
-0.00517221
-0.0055542
-0.00617135
-0.00713445
-0.00820985
-0.00926657
-0.0103932
-0.011634
-0.0128113
-0.0135804
-0.0135671
-4.7812e-05
-0.000404153
-0.000763997
-0.00146144
-0.00295788
-0.00386826
-0.00380568
-0.00392464
-0.00457306
-0.00518292
-0.00560383
-0.00620187
-0.00714339
-0.00824132
-0.00933602
-0.0104705
-0.0116912
-0.0128543
-0.0136342
-0.0136425
-6.18297e-05
-0.000428511
-0.000874294
-0.00154202
-0.00293712
-0.00393079
-0.00396426
-0.00400648
-0.00455588
-0.00517609
-0.00563683
-0.0062241
-0.00713681
-0.0082425
-0.00936987
-0.0105175
-0.0117226
-0.0128662
-0.0136503
-0.0136785
-8.98175e-05
-0.000458552
-0.000984025
-0.00164437
-0.0029326
-0.00397414
-0.00411238
-0.00410784
-0.00455172
-0.00515553
-0.00564959
-0.00623277
-0.00711296
-0.00821201
-0.00936287
-0.010526
-0.0117202
-0.0128436
-0.0136251
-0.0136713
-0.000133302
-0.000498098
-0.00109214
-0.00176485
-0.00295013
-0.00400502
-0.00424405
-0.00422157
-0.00456275
-0.0051254
-0.00564014
-0.00622246
-0.00706894
-0.00814844
-0.00931043
-0.0104872
-0.0116742
-0.0127804
-0.0135559
-0.0136161
-0.000193799
-0.000550374
-0.00119974
-0.00189957
-0.00299255
-0.00403124
-0.00435757
-0.00434034
-0.00458834
-0.00508972
-0.00560737
-0.00618769
-0.0070002
-0.008049
-0.00920794
-0.0103929
-0.0115758
-0.0126681
-0.0134372
-0.0135102
-0.000272624
-0.000618223
-0.00130982
-0.00204544
-0.00306041
-0.0040608
-0.00445526
-0.00445766
-0.00462566
-0.00505145
-0.00555134
-0.006123
-0.00690044
-0.00790901
-0.00905028
-0.0102347
-0.0114138
-0.0124954
-0.0132603
-0.0133468
-0.000371052
-0.00070473
-0.00142562
-0.00219989
-0.00315311
-0.00410059
-0.00454072
-0.00456923
-0.00467102
-0.00501236
-0.00547325
-0.00602405
-0.00676193
-0.00772159
-0.00883067
-0.0100023
-0.011174
-0.0122473
-0.0130111
-0.0131134
-0.00049069
-0.000812739
-0.00155129
-0.00236148
-0.00326881
-0.00415615
-0.0046184
-0.00467264
-0.00472118
-0.00497421
-0.00537539
-0.00588819
-0.00657679
-0.0074771
-0.00853879
-0.00968249
-0.0108384
-0.0119029
-0.0126686
-0.0127925
-0.000633459
-0.000944534
-0.0016909
-0.00253098
-0.00340559
-0.00423127
-0.00469408
-0.00476793
-0.0047736
-0.00493861
-0.00526166
-0.00571431
-0.00633723
-0.00716322
-0.0081594
-0.00925639
-0.0103834
-0.0114338
-0.0122043
-0.0123508
-0.000802158
-0.00110227
-0.00184798
-0.00271008
-0.00356223
-0.00432794
-0.00477425
-0.00485773
-0.00482783
-0.00490822
-0.00513863
-0.00550534
-0.00603759
-0.00676497
-0.00767076
-0.00869572
-0.00977389
-0.0107982
-0.011564
-0.0117405
-0.00100121
-0.00128896
-0.002026
-0.0029005
-0.00373698
-0.00444694
-0.00486449
-0.0049471
-0.00488626
-0.00488773
-0.00501757
-0.00527317
-0.00567911
-0.0062701
-0.00704314
-0.00795636
-0.00894792
-0.00992271
-0.0106849
-0.0109093
-0.00123328
-0.00150795
-0.0022282
-0.00310599
-0.00392789
-0.00458727
-0.00496854
-0.00504307
-0.00495488
-0.00488277
-0.00491132
-0.00504426
-0.00527843
-0.00566714
-0.00623821
-0.00697757
-0.00782541
-0.00871242
-0.00946474
-0.00976992
-0.00149962
-0.0017626
-0.00245923
-0.00333252
-0.00413448
-0.00474665
-0.0050878
-0.00515046
-0.00504329
-0.00490211
-0.00482544
-0.00483592
-0.004901
-0.00500527
-0.00523031
-0.00563809
-0.00623378
-0.00694056
-0.00767007
-0.00814634
-0.00180061
-0.00205227
-0.00272992
-0.00358422
-0.00435723
-0.00492218
-0.00522329
-0.00527329
-0.00515675
-0.00496802
-0.00476931
-0.00464202
-0.00459829
-0.00449807
-0.00422637
-0.00382054
-0.00348893
-0.00347739
-0.00384418
-0.00446369
-0.00214542
-0.00238053
-0.00304455
-0.00386224
-0.00459447
-0.00511028
-0.00537476
-0.00541239
-0.00529861
-0.00510103
-0.00481222
-0.00443822
-0.00415424
-0.004192
-0.00429499
-0.003765
-0.00223111
-0.000338379
0.0011847
0.00204511
-0.00255848
-0.00276638
-0.00339322
-0.00415936
-0.00483776
-0.00530448
-0.00553672
-0.00556375
-0.00543822
-0.00524477
-0.00503415
-0.00450342
-0.00325199
-0.00177425
-0.000469656
0.00065835
0.00179793
0.00296878
0.00394011
0.00428474
-0.00304524
-0.0032198
-0.00377954
-0.00447135
-0.00507464
-0.00548815
-0.00568573
-0.00570534
-0.00554983
-0.0049259
-0.00365861
-0.00224742
-0.00102012
-3.10637e-05
0.000854663
0.00177887
0.00280962
0.0038575
0.00465811
0.00482494
-0.0036078
-0.00374832
-0.004209
-0.0047931
-0.00528796
-0.00560306
-0.00573051
-0.00542811
-0.00452816
-0.00342445
-0.00237692
-0.00145891
-0.00060333
0.000317771
0.00135697
0.00250499
0.00369271
0.00478212
0.00555006
0.00563675
-0.00426304
-0.00437181
-0.00467834
-0.00507848
-0.00543786
-0.00539982
-0.0049572
-0.00432275
-0.00361728
-0.00289534
-0.00214506
-0.00129028
-0.000289381
0.000837032
0.00206597
0.0033504
0.00460875
0.00570374
0.00641345
0.00639731
-0.00501181
-0.00511216
-0.00518169
-0.00513479
-0.00494928
-0.00467349
-0.00430149
-0.00385092
-0.00331918
-0.00266731
-0.00186311
-0.000895102
0.000215881
0.0014427
0.00274679
0.00407786
0.00535093
0.0064227
0.00706654
0.00695083
-0.00575457
-0.0057645
-0.00544151
-0.00499738
-0.00457342
-0.00423205
-0.00391769
-0.00353201
-0.00301446
-0.00233185
-0.00147404
-0.000454074
0.000705973
0.00197408
0.0033077
0.0046448
0.00589573
0.00691941
0.00749661
0.00730194
-0.00636773
-0.00624722
-0.00567697
-0.00497131
-0.00437525
-0.00393738
-0.00358018
-0.0031869
-0.00266032
-0.00196261
-0.00108928
-5.17529e-05
0.00112622
0.00240719
0.003743
0.00507009
0.0062968
0.00728235
0.00781042
0.00756004
-0.00683989
-0.00661818
-0.00591342
-0.00504273
-0.00427306
-0.00370273
-0.00327099
-0.0028461
-0.00231781
-0.00162681
-0.000755583
0.000283908
0.00146513
0.00274883
0.00408415
0.00540387
0.00661332
0.00757095
0.00806241
0.00777046
-0.00720784
-0.00691981
-0.00612751
-0.00513064
-0.00421564
-0.00352132
-0.00300984
-0.0025508
-0.00201879
-0.0013379
-0.000480518
0.000550045
0.00172887
0.00301375
0.00434973
0.00566527
0.00686272
0.00780003
0.00826458
0.00794226
-0.00748715
-0.00715986
-0.00629851
-0.00521234
-0.00419598
-0.0034051
-0.00282035
-0.00232021
-0.0017722
-0.00108861
-0.000233826
0.000791351
0.0019636
0.00324337
0.0045737
0.00588116
0.00706647
0.00798782
0.00843314
0.00808955
-0.00766566
-0.00732484
-0.00642496
-0.00529102
-0.0042232
-0.00338134
-0.00275023
-0.00221486
-0.00164456
-0.000946314
-7.6113e-05
0.000965613
0.00215086
0.00343466
0.00476152
0.00606038
0.00723175
0.00814149
0.00857749
0.00822647
0.00806667
0.00306077
-0.00433134
-0.00946383
-0.0104902
-0.00924732
-0.00778714
-0.00678719
-0.00621902
-0.0059235
-0.00578852
-0.00575264
-0.00578025
-0.00584766
-0.00593585
-0.00603034
-0.00612562
-0.00622326
-0.00632341
-0.00642177
-0.00651545
-0.00660636
-0.00669753
-0.00678957
-0.00688143
-0.00697258
-0.00706351
-0.00715485
-0.00724683
-0.00733909
-0.00743134
-0.00752374
-0.00761662
-0.00771017
-0.00780426
-0.00789868
-0.00799329
-0.00808791
-0.0081822
-0.00827568
-0.00836823
-0.00845995
-0.00855072
-0.00864008
-0.00872753
-0.00881311
-0.00889733
-0.00898046
-0.00906229
-0.00914237
-0.00922078
-0.00929804
-0.00937454
-0.00945037
-0.00952533
-0.00959928
-0.00967235
-0.00974478
-0.00981658
-0.00988761
-0.00995777
-0.0100271
-0.0100958
-0.0101636
-0.0102307
-0.0102973
-0.010364
-0.0104309
-0.010498
-0.0105654
-0.0106331
-0.0107011
-0.0107694
-0.0108377
-0.0109057
-0.010973
-0.0110397
-0.0111061
-0.0111726
-0.0112393
-0.0113062
-0.0113736
-0.0114411
-0.0115086
-0.0115759
-0.0116424
-0.0117083
-0.0117739
-0.0118393
-0.0119048
-0.0119702
-0.0120359
-0.0121017
-0.0121678
-0.0122339
-0.0122998
-0.0123655
-0.0124313
-0.0124975
-0.0125642
-0.0126313
-0.0126988
-0.0127664
-0.0128343
-0.0129025
-0.0129708
-0.0130394
-0.0131082
-0.0131775
-0.0132472
-0.0133175
-0.0133878
-0.0134583
-0.0135286
-0.0135993
-0.0136701
-0.0137416
-0.0138132
-0.013885
-0.0139567
-0.0140285
-0.0141003
-0.0141722
-0.0142446
-0.014317
-0.0143894
-0.0144617
-0.014534
-0.0146062
-0.0146786
-0.0147508
-0.0148229
-0.0148945
-0.0149658
-0.0150371
-0.0151084
-0.0151796
-0.0152499
-0.0153199
-0.0153896
-0.0154588
-0.0155278
-0.0155968
-0.015666
-0.0157333
-0.0157998
-0.015866
-0.0159342
-0.0160018
-0.0160677
-0.0161311
-0.0161952
-0.0162617
-0.0163279
-0.0163918
-0.0164527
-0.0165156
-0.0165794
-0.016644
-0.0167054
-0.0167651
-0.0168253
-0.016888
-0.0169512
-0.0170096
-0.0170671
-0.0171271
-0.0171894
-0.0172479
-0.0173034
-0.0173623
-0.0174215
-0.0174801
-0.017535
-0.0175928
-0.0176507
-0.0177069
-0.0177637
-0.0178186
-0.017877
-0.0179311
-0.017988
-0.0180429
-0.0180986
-0.0181545
-0.0182081
-0.0182651
-0.0183175
-0.018374
-0.0184272
-0.0184803
-0.0185366
-0.0185855
-0.0186413
-0.0186909
-0.0187386
-0.0187886
-0.0188304
-0.0188633
-0.0189016
0.00733743
0.00288577
-0.00425139
-0.00933021
-0.0104117
-0.00920973
-0.00776341
-0.00677049
-0.00620706
-0.00591448
-0.00578128
-0.00574655
-0.00577496
-0.00584297
-0.00593164
-0.00602652
-0.00612211
-0.00622003
-0.00632043
-0.00641902
-0.00651291
-0.00660399
-0.00669533
-0.00678752
-0.00687953
-0.00697081
-0.00706185
-0.00715329
-0.00724536
-0.00733769
-0.00743002
-0.00752249
-0.00761542
-0.00770902
-0.00780317
-0.00789762
-0.00799228
-0.00808694
-0.00818127
-0.00827478
-0.00836737
-0.00845911
-0.00854992
-0.00863931
-0.0087268
-0.0088124
-0.00889665
-0.0089798
-0.00906166
-0.00914176
-0.00922019
-0.00929748
-0.009374
-0.00944985
-0.00952483
-0.00959879
-0.00967189
-0.00974433
-0.00981614
-0.00988719
-0.00995736
-0.0100267
-0.0100954
-0.0101632
-0.0102303
-0.010297
-0.0103636
-0.0104305
-0.0104977
-0.0105651
-0.0106328
-0.0107008
-0.0107691
-0.0108374
-0.0109054
-0.0109727
-0.0110394
-0.0111059
-0.0111723
-0.011239
-0.011306
-0.0113733
-0.0114409
-0.0115084
-0.0115756
-0.0116422
-0.0117081
-0.0117737
-0.0118391
-0.0119046
-0.0119701
-0.0120357
-0.0121016
-0.0121677
-0.0122337
-0.0122997
-0.0123653
-0.0124312
-0.0124973
-0.0125641
-0.0126312
-0.0126986
-0.0127663
-0.0128342
-0.0129024
-0.0129707
-0.0130393
-0.0131081
-0.0131774
-0.0132471
-0.0133174
-0.0133877
-0.0134582
-0.0135285
-0.0135992
-0.01367
-0.0137415
-0.0138131
-0.0138849
-0.0139566
-0.0140284
-0.0141002
-0.0141722
-0.0142445
-0.0143169
-0.0143894
-0.0144616
-0.0145339
-0.0146062
-0.0146785
-0.0147508
-0.0148228
-0.0148945
-0.0149657
-0.015037
-0.0151083
-0.0151795
-0.0152498
-0.0153198
-0.0153895
-0.0154587
-0.0155278
-0.0155967
-0.0156659
-0.0157333
-0.0157998
-0.0158659
-0.0159341
-0.0160017
-0.0160677
-0.0161311
-0.0161952
-0.0162617
-0.0163279
-0.0163918
-0.0164527
-0.0165155
-0.0165794
-0.016644
-0.0167054
-0.0167651
-0.0168253
-0.016888
-0.0169512
-0.0170096
-0.0170671
-0.017127
-0.0171894
-0.0172479
-0.0173034
-0.0173623
-0.0174215
-0.01748
-0.017535
-0.0175928
-0.0176507
-0.0177069
-0.0177637
-0.0178186
-0.017877
-0.0179311
-0.017988
-0.0180429
-0.0180986
-0.0181545
-0.0182081
-0.0182651
-0.0183175
-0.018374
-0.0184272
-0.0184803
-0.0185366
-0.0185855
-0.0186413
-0.0186909
-0.0187386
-0.0187886
-0.0188304
-0.0188633
-0.0189016
0.00657146
0.00271171
-0.00407678
-0.00907836
-0.0102701
-0.00915351
-0.00773239
-0.00674657
-0.00618839
-0.00590034
-0.00577053
-0.00573817
-0.00576821
-0.00583734
-0.00592681
-0.00602227
-0.0061183
-0.00621657
-0.00631727
-0.00641611
-0.00651021
-0.0066015
-0.00669302
-0.00678538
-0.00687754
-0.00696896
-0.00706013
-0.00715168
-0.00724385
-0.00733629
-0.00742869
-0.00752123
-0.00761423
-0.00770789
-0.00780209
-0.00789659
-0.00799129
-0.00808599
-0.00818035
-0.0082739
-0.00836652
-0.0084583
-0.00854913
-0.00863857
-0.00872608
-0.0088117
-0.00889598
-0.00897916
-0.00906104
-0.00914116
-0.00921962
-0.00929693
-0.00937348
-0.00944934
-0.00952434
-0.00959832
-0.00967143
-0.00974389
-0.00981572
-0.00988678
-0.00995697
-0.0100264
-0.010095
-0.0101629
-0.01023
-0.0102966
-0.0103633
-0.0104302
-0.0104974
-0.0105648
-0.0106325
-0.0107005
-0.0107689
-0.0108372
-0.0109051
-0.0109724
-0.0110392
-0.0111057
-0.0111721
-0.0112388
-0.0113058
-0.0113731
-0.0114407
-0.0115082
-0.0115754
-0.011642
-0.011708
-0.0117735
-0.011839
-0.0119044
-0.0119699
-0.0120356
-0.0121014
-0.0121675
-0.0122336
-0.0122995
-0.0123652
-0.012431
-0.0124972
-0.0125639
-0.012631
-0.0126985
-0.0127661
-0.0128341
-0.0129022
-0.0129706
-0.0130391
-0.013108
-0.0131773
-0.013247
-0.0133173
-0.0133876
-0.0134581
-0.0135284
-0.0135991
-0.0136699
-0.0137414
-0.0138131
-0.0138848
-0.0139565
-0.0140283
-0.0141001
-0.0141721
-0.0142444
-0.0143168
-0.0143893
-0.0144615
-0.0145338
-0.0146061
-0.0146784
-0.0147507
-0.0148227
-0.0148944
-0.0149656
-0.015037
-0.0151083
-0.0151795
-0.0152498
-0.0153198
-0.0153895
-0.0154587
-0.0155277
-0.0155967
-0.0156659
-0.0157333
-0.0157998
-0.0158659
-0.0159341
-0.0160017
-0.0160677
-0.016131
-0.0161952
-0.0162617
-0.0163279
-0.0163917
-0.0164526
-0.0165155
-0.0165794
-0.016644
-0.0167054
-0.016765
-0.0168252
-0.016888
-0.0169511
-0.0170096
-0.0170671
-0.017127
-0.0171894
-0.0172479
-0.0173034
-0.0173623
-0.0174215
-0.01748
-0.017535
-0.0175927
-0.0176507
-0.0177069
-0.0177637
-0.0178186
-0.017877
-0.0179311
-0.017988
-0.0180429
-0.0180986
-0.0181545
-0.0182081
-0.0182651
-0.0183175
-0.018374
-0.0184272
-0.0184803
-0.0185366
-0.0185855
-0.0186412
-0.0186909
-0.0187386
-0.0187886
-0.0188304
-0.0188633
-0.0189016
0.0058442
0.00255893
-0.00383429
-0.00874519
-0.010073
-0.0090735
-0.00768803
-0.00671029
-0.00615888
-0.00587796
-0.00575397
-0.00572578
-0.00575865
-0.00582968
-0.00592044
-0.00601684
-0.00611358
-0.00621237
-0.00631346
-0.00641262
-0.006507
-0.00659853
-0.00669028
-0.00678284
-0.00687519
-0.00696679
-0.00705813
-0.00714984
-0.00724215
-0.00733471
-0.00742722
-0.00751986
-0.00761295
-0.00770669
-0.00780095
-0.00789551
-0.00799026
-0.008085
-0.00817941
-0.008273
-0.00836566
-0.00845746
-0.00854832
-0.00863779
-0.00872533
-0.00881098
-0.00889528
-0.0089785
-0.0090604
-0.00914055
-0.00921902
-0.00929636
-0.00937293
-0.00944881
-0.00952383
-0.00959784
-0.00967097
-0.00974344
-0.00981529
-0.00988637
-0.00995656
-0.010026
-0.0100946
-0.0101625
-0.0102296
-0.0102963
-0.010363
-0.0104299
-0.0104971
-0.0105645
-0.0106322
-0.0107003
-0.0107686
-0.0108369
-0.0109049
-0.0109722
-0.011039
-0.0111054
-0.0111719
-0.0112386
-0.0113056
-0.0113729
-0.0114405
-0.011508
-0.0115752
-0.0116418
-0.0117078
-0.0117734
-0.0118388
-0.0119042
-0.0119697
-0.0120354
-0.0121012
-0.0121673
-0.0122334
-0.0122994
-0.012365
-0.0124309
-0.0124971
-0.0125638
-0.0126309
-0.0126984
-0.012766
-0.012834
-0.0129021
-0.0129704
-0.013039
-0.0131078
-0.0131772
-0.0132469
-0.0133172
-0.0133875
-0.013458
-0.0135283
-0.013599
-0.0136699
-0.0137413
-0.013813
-0.0138847
-0.0139564
-0.0140282
-0.0141
-0.014172
-0.0142443
-0.0143167
-0.0143892
-0.0144614
-0.0145338
-0.014606
-0.0146784
-0.0147506
-0.0148227
-0.0148944
-0.0149656
-0.0150369
-0.0151082
-0.0151794
-0.0152497
-0.0153197
-0.0153894
-0.0154586
-0.0155277
-0.0155967
-0.0156659
-0.0157332
-0.0157997
-0.0158658
-0.0159341
-0.0160017
-0.0160676
-0.016131
-0.0161952
-0.0162616
-0.0163279
-0.0163917
-0.0164526
-0.0165155
-0.0165793
-0.016644
-0.0167054
-0.016765
-0.0168252
-0.0168879
-0.0169511
-0.0170096
-0.0170671
-0.017127
-0.0171893
-0.0172479
-0.0173034
-0.0173623
-0.0174215
-0.01748
-0.017535
-0.0175927
-0.0176507
-0.0177069
-0.0177637
-0.0178186
-0.017877
-0.0179311
-0.017988
-0.0180429
-0.0180986
-0.0181545
-0.0182081
-0.0182651
-0.0183175
-0.018374
-0.0184272
-0.0184803
-0.0185366
-0.0185855
-0.0186412
-0.0186909
-0.0187386
-0.0187886
-0.0188304
-0.0188633
-0.0189016
0.00514645
0.00239633
-0.00357342
-0.00838256
-0.00985106
-0.00898231
-0.00763662
-0.00666468
-0.00611916
-0.0058467
-0.00573043
-0.00570804
-0.00574499
-0.0058188
-0.0059115
-0.00600934
-0.00610718
-0.00620677
-0.00630841
-0.00640799
-0.00650275
-0.00659463
-0.00668666
-0.00677949
-0.00687207
-0.00696392
-0.00705551
-0.00714744
-0.00723996
-0.0073327
-0.00742538
-0.00751816
-0.00761139
-0.00770525
-0.00779961
-0.00789425
-0.00798907
-0.00808387
-0.00817833
-0.00827197
-0.00836467
-0.0084565
-0.0085474
-0.0086369
-0.00872447
-0.00881016
-0.00889448
-0.00897773
-0.00905966
-0.00913983
-0.00921833
-0.0092957
-0.0093723
-0.00944821
-0.00952325
-0.00959728
-0.00967043
-0.00974293
-0.0098148
-0.0098859
-0.00995612
-0.0100255
-0.0100942
-0.0101621
-0.0102292
-0.0102959
-0.0103626
-0.0104295
-0.0104967
-0.0105642
-0.0106319
-0.0106999
-0.0107683
-0.0108366
-0.0109046
-0.0109719
-0.0110387
-0.0111051
-0.0111716
-0.0112383
-0.0113053
-0.0113727
-0.0114402
-0.0115078
-0.011575
-0.0116416
-0.0117076
-0.0117731
-0.0118386
-0.0119041
-0.0119695
-0.0120352
-0.012101
-0.0121672
-0.0122332
-0.0122992
-0.0123649
-0.0124307
-0.0124969
-0.0125637
-0.0126307
-0.0126982
-0.0127659