/*--------------------------------*- C++ -*----------------------------------*\
| =========                 |                                                 |
| \\      /  F ield         | OpenFOAM: The Open Source CFD Toolbox           |
|  \\    /   O peration     | Version:  v2012                                 |
|   \\  /    A nd           | Website:  www.openfoam.com                      |
|    \\/     M anipulation  |                                                 |
\*---------------------------------------------------------------------------*/
FoamFile
{
    version     2.0;
    format      ascii;
    class       surfaceScalarField;
    location    "1.8";
    object      phi;
}
// * * * * * * * * * * * * * * * * * * * * * * * * * * * * * * * * * * * * * //

dimensions      [0 3 -1 0 0 0 0];
oriented        oriented;


internalField   nonuniform List<scalar> 
34900
(
1.17202e-06
4.69955e-08
1.16482e-06
-2.3959e-07
1.17317e-06
1.84628e-07
1.16697e-06
-2.46789e-07
1.17905e-06
4.56583e-07
1.16421e-06
-1.15997e-07
1.17164e-06
2.27869e-07
1.15759e-06
7.73213e-08
1.16124e-06
2.48537e-08
1.14937e-06
7.92956e-08
1.15393e-06
2.4075e-08
1.14246e-06
3.12993e-08
1.14782e-06
2.81675e-08
1.13619e-06
1.9121e-08
1.14232e-06
3.30994e-08
1.13002e-06
1.2425e-08
1.13625e-06
4.69653e-08
1.12259e-06
9.31548e-09
1.12432e-06
7.21495e-08
1.56611e-08
1.0869e-06
1.22681e-06
4.44421e-08
1.21995e-06
-2.32723e-07
1.22693e-06
1.77641e-07
1.22227e-06
-2.42126e-07
1.23101e-06
4.47844e-07
1.21918e-06
-1.0417e-07
1.2228e-06
2.24257e-07
1.21432e-06
8.57953e-08
1.21379e-06
2.53846e-08
1.20777e-06
8.53148e-08
1.20706e-06
2.47837e-08
1.20252e-06
3.58459e-08
1.20003e-06
3.06561e-08
1.19852e-06
2.06287e-08
1.19261e-06
3.90136e-08
1.19546e-06
9.56985e-09
1.1831e-06
5.93218e-08
1.19154e-06
8.75703e-10
1.16621e-06
9.74805e-08
1.18067e-08
1.17007e-06
1.2833e-06
4.39218e-08
1.27869e-06
-2.28113e-07
1.2827e-06
1.73632e-07
1.28016e-06
-2.39579e-07
1.28495e-06
4.43052e-07
1.27821e-06
-9.7436e-08
1.27624e-06
2.2623e-07
1.27529e-06
8.67488e-08
1.26872e-06
3.19504e-08
1.26986e-06
8.41769e-08
1.26268e-06
3.1965e-08
1.26527e-06
3.32573e-08
1.25614e-06
3.97782e-08
1.26099e-06
1.57839e-08
1.25004e-06
4.99579e-08
1.25602e-06
3.59034e-09
1.24397e-06
7.13777e-08
1.24787e-06
-3.02583e-09
1.23501e-06
1.10344e-07
2.51754e-08
1.22164e-06
1.34218e-06
4.58498e-08
1.3407e-06
-2.26639e-07
1.34119e-06
1.73142e-07
1.34112e-06
-2.39509e-07
1.3427e-06
4.41479e-07
1.34146e-06
-9.62027e-08
1.3349e-06
2.32787e-07
1.33965e-06
8.20037e-08
1.32931e-06
4.22896e-08
1.33336e-06
8.01278e-08
1.32428e-06
4.10494e-08
1.32798e-06
2.95556e-08
1.31913e-06
4.86252e-08
1.32273e-06
1.21835e-08
1.31489e-06
5.77971e-08
1.317e-06
1.4846e-09
1.31076e-06
7.76136e-08
1.30875e-06
-1.01082e-09
1.30308e-06
1.16013e-07
4.24784e-08
1.28577e-06
1.40444e-06
4.97593e-08
1.4055e-06
-2.27694e-07
1.40322e-06
1.75426e-07
1.4046e-06
-2.40895e-07
1.40516e-06
4.40923e-07
1.40764e-06
-9.86883e-08
1.39995e-06
2.40478e-07
1.40659e-06
7.53644e-08
1.39642e-06
5.24557e-08
1.39947e-06
7.70842e-08
1.39213e-06
4.83844e-08
1.39386e-06
2.78282e-08
1.38774e-06
5.47474e-08
1.38889e-06
1.10281e-08
1.38404e-06
6.26529e-08
1.3838e-06
1.7241e-09
1.38001e-06
8.13972e-08
1.37592e-06
3.08777e-09
1.3722e-06
1.19726e-07
5.98203e-08
1.35486e-06
1.47109e-06
5.43497e-08
1.47302e-06
-2.29624e-07
1.46948e-06
1.78958e-07
1.47061e-06
-2.4202e-07
1.47221e-06
4.39319e-07
1.47607e-06
-1.02549e-07
1.47031e-06
2.46242e-07
1.47624e-06
6.94333e-08
1.46847e-06
6.02304e-08
1.46962e-06
7.59343e-08
1.46452e-06
5.34777e-08
1.46463e-06
2.77234e-08
1.46034e-06
5.90404e-08
1.46037e-06
1.09915e-08
1.45678e-06
6.62449e-08
1.4557e-06
2.80185e-09
1.45287e-06
8.42248e-08
1.44749e-06
8.46846e-09
1.44522e-06
1.22002e-07
7.72732e-08
1.42777e-06
1.54243e-06
5.81319e-08
1.54363e-06
-2.30819e-07
1.54029e-06
1.823e-07
1.53983e-06
-2.41562e-07
1.54325e-06
4.35901e-07
1.54692e-06
-1.06223e-07
1.54418e-06
2.48986e-07
1.54881e-06
6.47977e-08
1.54356e-06
6.54776e-08
1.54372e-06
7.57802e-08
1.54008e-06
5.71214e-08
1.53965e-06
2.8144e-08
1.53624e-06
6.24531e-08
1.53599e-06
1.1244e-08
1.53308e-06
6.91502e-08
1.53145e-06
4.43444e-09
1.52954e-06
8.61359e-08
1.52282e-06
1.51863e-08
1.52195e-06
1.22872e-07
9.4539e-08
1.50469e-06
1.61806e-06
6.02041e-08
1.61778e-06
-2.30537e-07
1.61541e-06
1.84664e-07
1.61305e-06
-2.39202e-07
1.61787e-06
4.3108e-07
1.62074e-06
-1.09095e-07
1.62061e-06
2.49124e-07
1.62436e-06
6.10407e-08
1.62102e-06
6.88169e-08
1.62114e-06
7.56677e-08
1.6184e-06
5.98599e-08
1.61807e-06
2.84702e-08
1.61527e-06
6.52579e-08
1.61494e-06
1.15729e-08
1.61275e-06
7.13379e-08
1.61051e-06
6.67664e-09
1.60965e-06
8.69945e-08
1.60167e-06
2.31695e-08
1.60195e-06
1.22592e-07
1.11047e-07
1.58544e-06
1.69722e-06
6.05601e-08
1.69566e-06
-2.28976e-07
1.69443e-06
1.85891e-07
1.69072e-06
-2.35489e-07
1.69621e-06
4.25582e-07
1.69814e-06
-1.11021e-07
1.6998e-06
2.47463e-07
1.70308e-06
5.77584e-08
1.70113e-06
7.0769e-08
1.70163e-06
7.51663e-08
1.69965e-06
6.1843e-08
1.6996e-06
2.85222e-08
1.69744e-06
6.74164e-08
1.69701e-06
1.2006e-08
1.69568e-06
7.26688e-08
1.69274e-06
9.61469e-09
1.69299e-06
8.67444e-08
1.68393e-06
3.22223e-08
1.685e-06
1.21525e-07
1.26235e-07
1.66981e-06
1.77948e-06
5.9801e-08
1.77729e-06
-2.26785e-07
1.77705e-06
1.86133e-07
1.77285e-06
-2.31286e-07
1.77861e-06
4.19816e-07
1.77955e-06
-1.11959e-07
1.78242e-06
2.44597e-07
1.78531e-06
5.48695e-08
1.78444e-06
7.16353e-08
1.78535e-06
7.42509e-08
1.78411e-06
6.30835e-08
1.78429e-06
2.83487e-08
1.78287e-06
6.88383e-08
1.78221e-06
1.26656e-08
1.78184e-06
7.30328e-08
1.77814e-06
1.33208e-08
1.77943e-06
8.54525e-08
1.7696e-06
4.20521e-08
1.771e-06
1.20123e-07
1.39605e-07
1.75763e-06
1.86493e-06
5.86206e-08
1.86269e-06
-2.24548e-07
1.86322e-06
1.85601e-07
1.85922e-06
-2.27279e-07
1.86524e-06
4.13797e-07
1.86517e-06
-1.11895e-07
1.86895e-06
2.4082e-07
1.87133e-06
5.2488e-08
1.87137e-06
7.15986e-08
1.87253e-06
7.30921e-08
1.87202e-06
6.35926e-08
1.87225e-06
2.81103e-08
1.87163e-06
6.94585e-08
1.87059e-06
1.37097e-08
1.87123e-06
7.23894e-08
1.86674e-06
1.78162e-08
1.86886e-06
8.33269e-08
1.85864e-06
5.22772e-08
1.85986e-06
1.18901e-07
1.50775e-07
1.84869e-06
1.95399e-06
5.74685e-08
1.95199e-06
-2.22544e-07
1.9531e-06
1.84486e-07
1.9496e-06
-2.23777e-07
1.95605e-06
4.07352e-07
1.95502e-06
-1.10873e-07
1.9596e-06
2.36242e-07
1.96134e-06
5.07441e-08
1.96216e-06
7.07793e-08
1.96333e-06
7.19234e-08
1.96353e-06
6.3393e-08
1.96363e-06
2.80081e-08
1.96384e-06
6.92488e-08
1.96228e-06
1.52778e-08
1.96388e-06
7.07879e-08
1.95866e-06
2.30299e-08
1.96129e-06
8.07052e-08
1.9511e-06
6.24625e-08
1.95167e-06
1.1833e-07
1.5956e-07
1.94289e-06
2.04716e-06
5.65e-08
2.04541e-06
-2.20794e-07
2.04695e-06
1.82943e-07
2.04393e-06
-2.20759e-07
2.05097e-06
4.0031e-07
2.04909e-06
-1.08993e-07
2.05445e-06
2.30892e-07
2.05548e-06
4.97065e-08
2.05702e-06
6.92393e-08
2.05797e-06
7.09722e-08
2.05887e-06
6.24992e-08
2.05865e-06
2.82302e-08
2.05968e-06
6.8215e-08
2.05751e-06
1.74482e-08
2.05993e-06
6.83697e-08
2.05418e-06
2.8781e-08
2.05687e-06
7.8011e-08
2.04716e-06
7.21765e-08
2.04674e-06
1.18747e-07
1.66014e-07
2.04028e-06
2.14481e-06
5.56866e-08
2.14321e-06
-2.19191e-07
2.14508e-06
1.81078e-07
2.14234e-06
-2.18026e-07
2.15009e-06
3.92567e-07
2.14746e-06
-1.06364e-07
2.15359e-06
2.24762e-07
2.1539e-06
4.93938e-08
2.15616e-06
6.69819e-08
2.1567e-06
7.04272e-08
2.15829e-06
6.09073e-08
2.15761e-06
2.89145e-08
2.15943e-06
6.63971e-08
2.15667e-06
2.02076e-08
2.15968e-06
6.53612e-08
2.15366e-06
3.4795e-08
2.15599e-06
7.56868e-08
2.14711e-06
8.10534e-08
2.14555e-06
1.20309e-07
1.70403e-07
2.14116e-06
2.24724e-06
5.4937e-08
2.24565e-06
-2.17605e-07
2.24779e-06
1.78944e-07
2.2451e-06
-2.15343e-07
2.2536e-06
3.84068e-07
2.2503e-06
-1.03061e-07
2.25724e-06
2.17824e-07
2.25682e-06
4.98149e-08
2.25983e-06
6.39652e-08
2.25983e-06
7.04277e-08
2.26213e-06
5.86044e-08
2.26092e-06
3.01261e-08
2.26344e-06
6.38816e-08
2.26021e-06
2.34356e-08
2.26351e-06
6.20567e-08
2.25756e-06
4.075e-08
2.25912e-06
7.41221e-08
2.25134e-06
8.88408e-08
2.24866e-06
1.2299e-07
1.73139e-07
2.24592e-06
2.35465e-06
5.4165e-08
2.35296e-06
-2.15919e-07
2.35537e-06
1.76536e-07
2.35253e-06
-2.12507e-07
2.36183e-06
3.74767e-07
2.35787e-06
-9.91001e-08
2.36567e-06
2.10029e-07
2.36449e-06
5.09951e-08
2.36833e-06
6.0127e-08
2.3677e-06
7.10596e-08
2.37071e-06
5.55935e-08
2.36899e-06
3.18433e-08
2.37205e-06
6.08182e-08
2.36858e-06
2.69099e-08
2.37184e-06
5.87897e-08
2.36625e-06
4.63401e-08
2.36679e-06
7.35824e-08
2.36019e-06
9.54446e-08
2.35658e-06
1.26596e-07
1.74699e-07
2.35503e-06
2.46725e-06
5.33078e-08
2.46537e-06
-2.14035e-07
2.4681e-06
1.73807e-07
2.46496e-06
-2.09366e-07
2.47512e-06
3.64606e-07
2.47047e-06
-9.44497e-08
2.47919e-06
2.01306e-07
2.47721e-06
5.29774e-08
2.48192e-06
5.54111e-08
2.48063e-06
7.23526e-08
2.4843e-06
5.1923e-08
2.4822e-06
3.3948e-08
2.48558e-06
5.74304e-08
2.48216e-06
3.03312e-08
2.48506e-06
5.58935e-08
2.48007e-06
5.13267e-08
2.47949e-06
7.41676e-08
2.47398e-06
1.00953e-07
2.46978e-06
1.30799e-07
1.7556e-07
2.46891e-06
2.58528e-06
5.2321e-08
2.58311e-06
-2.11861e-07
2.58624e-06
1.70677e-07
2.58267e-06
-2.05799e-07
2.59377e-06
3.53502e-07
2.58837e-06
-8.90422e-08
2.59809e-06
1.91579e-07
2.59526e-06
5.58071e-08
2.60088e-06
4.97909e-08
2.59897e-06
7.42707e-08
2.60318e-06
4.77112e-08
2.6009e-06
3.6223e-08
2.60432e-06
5.40106e-08
2.60129e-06
3.33657e-08
2.60352e-06
5.36583e-08
2.59928e-06
5.55701e-08
2.59764e-06
7.58035e-08
2.59299e-06
1.05606e-07
2.58858e-06
1.35212e-07
1.76152e-07
2.58799e-06
2.70898e-06
5.11703e-08
2.70642e-06
-2.09305e-07
2.71006e-06
1.6704e-07
2.70596e-06
-2.01696e-07
2.7181e-06
3.41357e-07
2.71186e-06
-8.27968e-08
2.72266e-06
1.80776e-07
2.71896e-06
5.95077e-08
2.72546e-06
4.32932e-08
2.72303e-06
7.66979e-08
2.72758e-06
4.31623e-08
2.72544e-06
3.83647e-08
2.72856e-06
5.08868e-08
2.72622e-06
3.57112e-08
2.72761e-06
5.22667e-08
2.72411e-06
5.90726e-08
2.72164e-06
7.82705e-08
2.71754e-06
1.09702e-07
2.71326e-06
1.39498e-07
1.76785e-07
2.71262e-06
2.83861e-06
4.98252e-08
2.83558e-06
-2.06267e-07
2.83984e-06
1.62772e-07
2.8351e-06
-1.96955e-07
2.84839e-06
3.28067e-07
2.84123e-06
-7.56393e-08
2.85316e-06
1.68854e-07
2.84861e-06
6.40564e-08
2.85588e-06
3.60194e-08
2.85315e-06
7.94247e-08
2.85775e-06
3.85682e-08
2.8561e-06
4.00103e-08
2.85861e-06
4.83752e-08
2.85716e-06
3.71639e-08
2.85768e-06
5.17429e-08
2.85478e-06
6.1976e-08
2.85178e-06
8.1276e-08
2.84799e-06
1.13493e-07
2.84402e-06
1.43461e-07
1.77625e-07
2.84318e-06
2.97446e-06
4.82572e-08
2.97084e-06
-2.02641e-07
2.97587e-06
1.57736e-07
2.97039e-06
-1.91474e-07
2.98492e-06
3.13536e-07
2.9768e-06
-6.75212e-08
2.98984e-06
1.55819e-07
2.98454e-06
6.93605e-08
2.99239e-06
2.81625e-08
2.98967e-06
8.21431e-08
2.99395e-06
3.42961e-08
2.99318e-06
4.07752e-08
2.99483e-06
4.67297e-08
2.99433e-06
3.76654e-08
2.99413e-06
5.19337e-08
2.99159e-06
6.45156e-08
2.98834e-06
8.45292e-08
2.98471e-06
1.17127e-07
2.98108e-06
1.47092e-07
1.78697e-07
2.98e-06
3.11682e-06
4.64391e-08
3.1125e-06
-1.98319e-07
3.11845e-06
1.51793e-07
3.11214e-06
-1.85165e-07
3.12798e-06
2.97696e-07
3.1189e-06
-5.84394e-08
3.13297e-06
1.41745e-07
3.12709e-06
7.52362e-08
3.13524e-06
2.00187e-08
3.13293e-06
8.44517e-08
3.13647e-06
3.07512e-08
3.13692e-06
4.03296e-08
3.13759e-06
4.60641e-08
3.13792e-06
3.73301e-08
3.13732e-06
5.2535e-08
3.13491e-06
6.69273e-08
3.13166e-06
8.77814e-08
3.12813e-06
1.20653e-07
3.12463e-06
1.50596e-07
1.79911e-07
3.12341e-06
3.266e-06
4.43469e-08
3.26088e-06
-1.932e-07
3.26787e-06
1.44809e-07
3.26066e-06
-1.77961e-07
3.27784e-06
2.80517e-07
3.26786e-06
-4.84579e-08
3.28281e-06
1.26795e-07
3.27665e-06
8.13978e-08
3.28469e-06
1.19801e-08
3.28324e-06
8.58987e-08
3.28569e-06
2.83019e-08
3.28752e-06
3.84995e-08
3.28733e-06
4.62591e-08
3.28819e-06
3.64688e-08
3.2876e-06
5.31244e-08
3.28519e-06
6.93344e-08
3.28216e-06
9.08098e-08
3.27879e-06
1.24025e-07
3.27492e-06
1.5447e-07
1.81096e-07
3.27373e-06
3.42232e-06
4.19606e-08
3.41631e-06
-1.87188e-07
3.42444e-06
1.36669e-07
3.41632e-06
-1.6984e-07
3.43481e-06
2.62033e-07
3.42408e-06
-3.77307e-08
3.43963e-06
1.11242e-07
3.43358e-06
8.74533e-08
3.44105e-06
4.50816e-09
3.4409e-06
8.60491e-08
3.44202e-06
2.71828e-08
3.44516e-06
3.53529e-08
3.4445e-06
4.69211e-08
3.44542e-06
3.55511e-08
3.44535e-06
5.31951e-08
3.44309e-06
7.15967e-08
3.44056e-06
9.33326e-08
3.43753e-06
1.27064e-07
3.43265e-06
1.59351e-07
1.82428e-07
3.43131e-06
3.5861e-06
3.9268e-08
3.57912e-06
-1.80209e-07
3.5885e-06
1.27299e-07
3.57949e-06
-1.60836e-07
3.59916e-06
2.42361e-07
3.58795e-06
-2.65199e-08
3.60373e-06
9.54688e-08
3.59825e-06
9.29302e-08
3.60468e-06
-1.91845e-09
3.60617e-06
8.4559e-08
3.60593e-06
2.74218e-08
3.61007e-06
3.12086e-08
3.60953e-06
4.74637e-08
3.61004e-06
3.50384e-08
3.61099e-06
5.22495e-08
3.60914e-06
7.34419e-08
3.60719e-06
9.52857e-08
3.60468e-06
1.29569e-07
3.6002e-06
1.6383e-07
1.86371e-07
3.59626e-06
3.75771e-06
3.62667e-08
3.74972e-06
-1.72217e-07
3.76034e-06
1.16677e-07
3.75057e-06
-1.51073e-07
3.77121e-06
2.21721e-07
3.7599e-06
-1.52046e-08
3.77541e-06
7.996e-08
3.77103e-06
9.73126e-08
3.77598e-06
-6.87067e-09
3.77927e-06
8.12624e-08
3.77787e-06
2.88249e-08
3.78258e-06
2.64973e-08
3.78267e-06
4.738e-08
3.78257e-06
3.51329e-08
3.78451e-06
5.03066e-08
3.78121e-06
7.67428e-08
3.77761e-06
9.88906e-08
3.77564e-06
1.31542e-07
3.77554e-06
1.63927e-07
1.93855e-07
3.76805e-06
3.93749e-06
3.29668e-08
3.92848e-06
-1.6321e-07
3.94029e-06
1.04869e-07
3.93e-06
-1.40786e-07
3.95127e-06
2.00452e-07
3.94035e-06
-4.28519e-09
3.95504e-06
6.52745e-08
3.95224e-06
1.00114e-07
3.95544e-06
-1.00712e-08
3.96046e-06
7.62357e-08
3.95826e-06
3.10311e-08
3.96312e-06
2.16341e-08
3.96396e-06
4.65444e-08
3.9629e-06
3.61883e-08
3.96176e-06
5.14494e-08
3.95578e-06
8.27179e-08
3.95095e-06
1.03725e-07
3.94887e-06
1.33621e-07
3.94758e-06
1.65221e-07
1.95144e-07
3.94629e-06
4.12582e-06
2.93945e-08
4.11586e-06
-1.53244e-07
4.12868e-06
9.20464e-08
4.11823e-06
-1.30337e-07
4.13968e-06
1.79005e-07
4.12974e-06
5.6533e-09
4.14304e-06
5.19713e-08
4.14217e-06
1.00984e-07
4.14357e-06
-1.14681e-08
4.14999e-06
6.98103e-08
4.14742e-06
3.36089e-08
4.1518e-06
1.72542e-08
4.1524e-06
4.59401e-08
4.14699e-06
4.15932e-08
4.14294e-06
5.55003e-08
4.13825e-06
8.74125e-08
4.13325e-06
1.0872e-07
4.13111e-06
1.35766e-07
4.12978e-06
1.66553e-07
1.93143e-07
4.13178e-06
4.3231e-06
2.55955e-08
4.31231e-06
-1.42449e-07
4.32583e-06
7.85221e-08
4.31572e-06
-1.20227e-07
4.3368e-06
1.57925e-07
4.32845e-06
1.40104e-08
4.33991e-06
4.05033e-08
4.34107e-06
9.98231e-08
4.34086e-06
-1.12582e-08
4.34813e-06
6.25496e-08
4.34522e-06
3.65179e-08
4.34733e-06
1.51398e-08
4.34503e-06
4.82385e-08
4.33791e-06
4.87114e-08
4.33406e-06
5.93533e-08
4.33053e-06
9.09399e-08
4.32577e-06
1.13488e-07
4.32375e-06
1.37783e-07
4.32335e-06
1.66954e-07
1.90132e-07
4.32636e-06
4.52973e-06
2.16368e-08
4.51833e-06
-1.31045e-07
4.53209e-06
6.47561e-08
4.52294e-06
-1.11075e-07
4.54309e-06
1.37774e-07
4.5368e-06
2.03061e-08
4.54622e-06
3.1085e-08
4.54915e-06
9.68853e-08
4.54771e-06
-9.81901e-09
4.55471e-06
5.55575e-08
4.55055e-06
4.06717e-08
4.54919e-06
1.6499e-08
4.54627e-06
5.11601e-08
4.53913e-06
5.58486e-08
4.53538e-06
6.31083e-08
4.53271e-06
9.36056e-08
4.52845e-06
1.17752e-07
4.52653e-06
1.39705e-07
4.52744e-06
1.66046e-07
1.87249e-07
4.53032e-06
4.74614e-06
1.76082e-08
4.73444e-06
-1.19344e-07
4.74785e-06
5.13522e-08
4.74033e-06
-1.03556e-07
4.75904e-06
1.19056e-07
4.75504e-06
2.43078e-08
4.76254e-06
2.35929e-08
4.76656e-06
9.28622e-08
4.76411e-06
-7.37313e-09
4.76933e-06
5.03449e-08
4.7634e-06
4.65957e-08
4.76019e-06
1.97115e-08
4.75786e-06
5.34929e-08
4.751e-06
6.27084e-08
4.74703e-06
6.70754e-08
4.74494e-06
9.56948e-08
4.74144e-06
1.21253e-07
4.73969e-06
1.41459e-07
4.74144e-06
1.64291e-07
1.84507e-07
4.74418e-06
4.97279e-06
1.36198e-08
4.96118e-06
-1.07741e-07
4.97352e-06
3.90183e-08
4.96824e-06
-9.82831e-08
4.98523e-06
1.02075e-07
4.98337e-06
2.61664e-08
4.98937e-06
1.75892e-08
4.99333e-06
8.89021e-08
4.98953e-06
-3.57331e-09
4.99249e-06
4.73828e-08
4.98594e-06
5.31526e-08
4.98169e-06
2.39549e-08
4.98009e-06
5.50994e-08
4.97375e-06
6.90464e-08
4.96933e-06
7.14968e-08
4.96757e-06
9.74557e-08
4.96502e-06
1.23794e-07
4.96363e-06
1.42857e-07
4.96541e-06
1.62511e-07
1.81425e-07
4.96849e-06
5.21014e-06
9.79631e-09
5.19909e-06
-9.66928e-08
5.20961e-06
2.84978e-08
5.207e-06
-9.56663e-08
5.22224e-06
8.68327e-08
5.22195e-06
2.64531e-08
5.22692e-06
1.26216e-08
5.2296e-06
8.62211e-08
5.22409e-06
1.94125e-09
5.2258e-06
4.56706e-08
5.21931e-06
5.96423e-08
5.2143e-06
2.89649e-08
5.21328e-06
5.61163e-08
5.20768e-06
7.46495e-08
5.20274e-06
7.64297e-08
5.20109e-06
9.91091e-08
5.1996e-06
1.25289e-07
5.19862e-06
1.43838e-07
5.20018e-06
1.60951e-07
1.77959e-07
5.20364e-06
5.45871e-06
6.27354e-09
5.44872e-06
-8.66978e-08
5.45675e-06
2.04662e-08
5.45682e-06
-9.57368e-08
5.47063e-06
7.30202e-08
5.471e-06
2.60854e-08
5.47496e-06
8.65984e-09
5.47596e-06
8.52215e-08
5.46895e-06
8.95243e-09
5.47023e-06
4.43945e-08
5.46428e-06
6.5585e-08
5.4585e-06
3.47513e-08
5.45782e-06
5.67893e-08
5.45313e-06
7.9342e-08
5.44782e-06
8.17417e-08
5.44611e-06
1.00819e-07
5.44556e-06
1.25842e-07
5.44504e-06
1.44354e-07
5.44648e-06
1.59507e-07
1.74277e-07
5.45017e-06
5.71904e-06
3.18785e-09
5.71059e-06
-7.82466e-08
5.71571e-06
1.53523e-08
5.71791e-06
-9.79449e-08
5.73082e-06
6.01101e-08
5.7307e-06
2.62126e-08
5.73343e-06
5.93203e-09
5.73347e-06
8.51727e-08
5.72535e-06
1.70806e-08
5.72646e-06
4.32796e-08
5.72141e-06
7.06336e-08
5.71486e-06
4.13053e-08
5.71417e-06
5.74773e-08
5.71051e-06
8.29992e-08
5.7051e-06
8.71591e-08
5.70323e-06
1.02686e-07
5.70337e-06
1.25703e-07
5.70339e-06
1.44328e-07
5.7049e-06
1.57999e-07
1.70512e-07
5.70867e-06
5.99172e-06
6.57668e-10
5.98525e-06
-7.17754e-08
5.98732e-06
1.32824e-08
5.9906e-06
-1.01224e-07
6.00302e-06
4.76949e-08
6.00158e-06
2.76496e-08
6.00318e-06
4.33343e-09
6.0031e-06
8.52471e-08
5.9942e-06
2.5988e-08
5.99509e-06
4.23888e-08
5.9912e-06
7.45234e-08
5.98399e-06
4.85124e-08
5.98289e-06
5.85747e-08
5.98027e-06
8.56211e-08
5.97511e-06
9.2318e-08
5.97306e-06
1.04733e-07
5.9736e-06
1.25164e-07
5.97422e-06
1.43713e-07
5.97595e-06
1.56264e-07
1.66709e-07
5.97976e-06
6.27736e-06
-1.2117e-09
6.27321e-06
-6.76279e-08
6.27241e-06
1.40832e-08
6.27544e-06
-1.04253e-07
6.28748e-06
3.56567e-08
6.28452e-06
3.06085e-08
6.28531e-06
3.54317e-09
6.28565e-06
8.49012e-08
6.27625e-06
3.53912e-08
6.27664e-06
4.20026e-08
6.27408e-06
7.70777e-08
6.26652e-06
5.60788e-08
6.26466e-06
6.04318e-08
6.26292e-06
8.73613e-08
6.25837e-06
9.68668e-08
6.25624e-06
1.0686e-07
6.25691e-06
1.24493e-07
6.2581e-06
1.42531e-07
6.26017e-06
1.54188e-07
1.62842e-07
6.26404e-06
6.5766e-06
-2.34185e-09
6.57495e-06
-6.59824e-08
6.57173e-06
1.73053e-08
6.5733e-06
-1.05816e-07
6.58501e-06
2.3938e-08
6.58073e-06
3.48957e-08
6.58073e-06
3.54333e-09
6.58192e-06
8.37044e-08
6.57225e-06
4.50612e-08
6.57172e-06
4.25316e-08
6.57054e-06
7.82663e-08
6.56304e-06
6.35797e-08
6.56021e-06
6.32566e-08
6.55908e-06
8.84933e-08
6.55537e-06
1.00576e-07
6.55336e-06
1.08868e-07
6.55398e-06
1.23871e-07
6.55565e-06
1.40862e-07
6.55812e-06
1.51716e-07
1.58857e-07
6.56211e-06
6.89013e-06
-2.68357e-09
6.89098e-06
-6.68346e-08
6.88598e-06
2.23059e-08
6.8852e-06
-1.05035e-07
6.89662e-06
1.25235e-08
6.89137e-06
4.01461e-08
6.8902e-06
4.70672e-09
6.89255e-06
8.13582e-08
6.88293e-06
5.46851e-08
6.88107e-06
4.43888e-08
6.88106e-06
7.82705e-08
6.87411e-06
7.05333e-08
6.87031e-06
6.70566e-08
6.86946e-06
8.93487e-08
6.86668e-06
1.03355e-07
6.86499e-06
1.10552e-07
6.86553e-06
1.23338e-07
6.86757e-06
1.38817e-07
6.87044e-06
1.48848e-07
1.54705e-07
6.87459e-06
7.21868e-06
-2.22821e-09
7.2218e-06
-6.9953e-08
7.21581e-06
2.82983e-08
7.21219e-06
-1.01416e-07
7.22323e-06
1.48582e-09
7.21732e-06
4.60481e-08
7.21453e-06
7.50482e-09
7.21803e-06
7.78517e-08
7.20895e-06
6.37646e-08
7.20551e-06
4.78329e-08
7.20624e-06
7.75414e-08
7.2003e-06
7.64726e-08
7.19572e-06
7.16315e-08
7.1948e-06
9.02702e-08
7.19296e-06
1.052e-07
7.1917e-06
1.11806e-07
7.19225e-06
1.22794e-07
7.19457e-06
1.36495e-07
7.19779e-06
1.45621e-07
1.50361e-07
7.20214e-06
7.563e-06
-9.98922e-10
7.56799e-06
-7.49418e-08
7.56178e-06
3.45022e-08
7.55521e-06
-9.48458e-08
7.56571e-06
-9.01253e-09
7.55948e-06
5.2275e-08
7.55456e-06
1.24286e-08
7.55893e-06
7.34778e-08
7.55099e-06
7.17076e-08
7.54591e-06
5.29156e-08
7.54676e-06
7.66849e-08
7.54215e-06
8.109e-08
7.53718e-06
7.65946e-08
7.53593e-06
9.15271e-08
7.53493e-06
1.06197e-07
7.53413e-06
1.12605e-07
7.53484e-06
1.22085e-07
7.53738e-06
1.3395e-07
7.54092e-06
1.42085e-07
1.45826e-07
7.54545e-06
7.92387e-06
9.46181e-10
7.93008e-06
-8.11578e-08
7.9246e-06
3.99826e-08
7.91507e-06
-8.53187e-08
7.92476e-06
-1.87021e-08
7.91867e-06
5.8368e-08
7.91124e-06
1.9861e-08
7.9159e-06
6.88149e-08
7.90962e-06
7.79926e-08
7.90315e-06
5.93793e-08
7.9035e-06
7.63359e-08
7.90025e-06
8.43456e-08
7.89537e-06
8.14672e-08
7.89368e-06
9.322e-08
7.89334e-06
1.06535e-07
7.893e-06
1.12949e-07
7.894e-06
1.21082e-07
7.89677e-06
1.31181e-07
7.90058e-06
1.38281e-07
1.41114e-07
7.90529e-06
8.30211e-06
3.51832e-09
8.30891e-06
-8.79624e-08
8.30478e-06
4.41139e-08
8.29248e-06
-7.30151e-08
8.30103e-06
-2.72533e-08
8.29559e-06
6.38032e-08
8.28556e-06
2.98917e-08
8.28971e-06
6.46663e-08
8.28541e-06
8.22902e-08
8.27809e-06
6.67065e-08
8.27741e-06
7.70137e-08
8.27529e-06
8.6465e-08
8.27095e-06
8.58038e-08
8.26893e-06
9.52454e-08
8.26899e-06
1.06472e-07
8.26909e-06
1.12851e-07
8.27046e-06
1.19708e-07
8.27349e-06
1.2815e-07
8.27755e-06
1.34223e-07
1.36238e-07
8.28243e-06
8.69858e-06
6.59903e-09
8.70546e-06
-9.48427e-08
8.70271e-06
4.68661e-08
8.68813e-06
-5.84385e-08
8.6951e-06
-3.42178e-08
8.6909e-06
6.80034e-08
8.67853e-06
4.22601e-08
8.68127e-06
6.19237e-08
8.67902e-06
8.45439e-08
8.67148e-06
7.42483e-08
8.66949e-06
7.89958e-08
8.66811e-06
8.7851e-08
8.6646e-06
8.93118e-08
8.66252e-06
9.73301e-08
8.66273e-06
1.06258e-07
8.66323e-06
1.12349e-07
8.665e-06
1.17935e-07
8.66834e-06
1.24818e-07
8.67266e-06
1.299e-07
1.31203e-07
8.67769e-06
9.11418e-06
1.00411e-08
9.12047e-06
-1.01135e-07
9.11937e-06
4.79672e-08
9.10246e-06
-4.15266e-08
9.10758e-06
-3.93458e-08
9.1052e-06
7.03856e-08
9.09114e-06
5.63193e-08
9.09159e-06
6.14734e-08
9.09111e-06
8.5024e-08
9.08405e-06
8.13074e-08
9.08077e-06
8.22817e-08
9.07963e-06
8.89899e-08
9.07706e-06
9.18799e-08
9.07525e-06
9.91394e-08
9.07546e-06
1.06054e-07
9.07631e-06
1.11495e-07
9.07847e-06
1.15778e-07
9.08212e-06
1.21162e-07
9.08673e-06
1.2529e-07
1.25997e-07
9.09194e-06
9.54983e-06
1.367e-08
9.55453e-06
-1.05834e-07
9.55529e-06
4.72108e-08
9.53642e-06
-2.26638e-08
9.53919e-06
-4.21086e-08
9.53908e-06
7.04889e-08
9.52434e-06
7.10668e-08
9.52185e-06
6.39586e-08
9.52249e-06
8.43827e-08
9.51656e-06
8.72444e-08
9.51223e-06
8.66068e-08
9.51087e-06
9.03496e-08
9.50918e-06
9.35655e-08
9.50791e-06
1.00416e-07
9.50811e-06
1.05852e-07
9.50925e-06
1.10353e-07
9.51174e-06
1.13288e-07
9.51572e-06
1.17182e-07
9.52064e-06
1.20373e-07
1.20588e-07
9.52605e-06
1.00065e-05
1.72928e-08
1.00089e-05
-1.08189e-07
1.00115e-05
4.45513e-08
9.99111e-06
-2.25013e-09
9.99075e-06
-4.17435e-08
9.99318e-06
6.80566e-08
9.97893e-06
8.53187e-08
9.97329e-06
6.96004e-08
9.97412e-06
8.35451e-08
9.9697e-06
9.16723e-08
9.96483e-06
9.14773e-08
9.96292e-06
9.22523e-08
9.9619e-06
9.45923e-08
9.96129e-06
1.01021e-07
9.96164e-06
1.05505e-07
9.96303e-06
1.08963e-07
9.96579e-06
1.10531e-07
9.97006e-06
1.12912e-07
9.97529e-06
1.15145e-07
1.14941e-07
9.98093e-06
1.04852e-05
2.07203e-08
1.04849e-05
-1.07909e-07
1.0489e-05
4.04834e-08
1.04678e-05
1.89837e-08
1.04636e-05
-3.75438e-08
1.04682e-05
6.34097e-08
1.04557e-05
9.78745e-08
1.04471e-05
7.81202e-08
1.04472e-05
8.34837e-08
1.04443e-05
9.46161e-08
1.04394e-05
9.62888e-08
1.04369e-05
9.4786e-08
1.04362e-05
9.52983e-08
1.04363e-05
1.00922e-07
1.0437e-05
1.04843e-07
1.04386e-05
1.07292e-07
1.04416e-05
1.07553e-07
1.04461e-05
1.08411e-07
1.04516e-05
1.09624e-07
1.09025e-07
1.04576e-05
1.0987e-05
2.3765e-08
1.09844e-05
-1.05346e-07
1.09887e-05
3.62065e-08
1.09675e-05
4.01226e-08
1.09592e-05
-2.91683e-08
1.09651e-05
5.7453e-08
1.09552e-05
1.0779e-07
1.09445e-05
8.87983e-08
1.0943e-05
8.50004e-08
1.09412e-05
9.64648e-08
1.09369e-05
1.00523e-07
1.09339e-05
9.77979e-08
1.09332e-05
9.60056e-08
1.09339e-05
1.00198e-07
1.0935e-05
1.03759e-07
1.09371e-05
1.05251e-07
1.09403e-05
1.04364e-07
1.09449e-05
1.0374e-07
1.09507e-05
1.03851e-07
1.02827e-07
1.09569e-05
1.15128e-05
2.62814e-08
1.15063e-05
-9.8759e-08
1.15121e-05
3.03271e-08
1.14919e-05
6.03268e-08
1.14792e-05
-1.64001e-08
1.14851e-05
5.15618e-08
1.14784e-05
1.14459e-07
1.14665e-05
1.00691e-07
1.14629e-05
8.85766e-08
1.14616e-05
9.77947e-08
1.14582e-05
1.03928e-07
1.1455e-05
1.00975e-07
1.14541e-05
9.691e-08
1.14553e-05
9.90202e-08
1.14568e-05
1.02216e-07
1.14593e-05
1.02735e-07
1.14628e-05
1.00939e-07
1.14676e-05
9.89358e-08
1.14735e-05
9.78804e-08
9.63523e-08
1.148e-05
1.20639e-05
2.81744e-08
1.20534e-05
-8.8202e-08
1.20596e-05
2.41268e-08
1.20419e-05
7.79893e-08
1.20251e-05
3.84013e-10
1.20294e-05
4.72372e-08
1.2026e-05
1.17912e-07
1.2014e-05
1.1271e-07
1.20082e-05
9.43352e-08
1.20068e-05
9.92297e-08
1.20042e-05
1.0651e-07
1.20012e-05
1.0399e-07
1.20001e-05
9.80367e-08
1.20014e-05
9.76321e-08
1.20035e-05
1.00178e-07
1.20065e-05
9.97029e-08
1.20102e-05
9.72198e-08
1.20152e-05
9.40057e-08
1.20213e-05
9.17694e-08
8.96279e-08
1.2028e-05
1.26413e-05
2.94189e-08
1.26273e-05
-7.41808e-08
1.26329e-05
1.85614e-08
1.26183e-05
9.2552e-08
1.25984e-05
2.02915e-08
1.25999e-05
4.5773e-08
1.2599e-05
1.18771e-07
1.25879e-05
1.23841e-07
1.25802e-05
1.02037e-07
1.25781e-05
1.01372e-07
1.25761e-05
1.08431e-07
1.25735e-05
1.0662e-07
1.25722e-05
9.92919e-08
1.25736e-05
9.62881e-08
1.25762e-05
9.7589e-08
1.25797e-05
9.62213e-08
1.25838e-05
9.30959e-08
1.25888e-05
8.89496e-08
1.25951e-05
8.55431e-08
8.26861e-08
1.2602e-05
1.32463e-05
3.00539e-08
1.32302e-05
-5.80844e-08
1.32334e-05
1.53288e-08
1.32223e-05
1.03679e-07
1.32003e-05
4.23145e-08
1.3198e-05
4.80526e-08
1.31987e-05
1.1808e-07
1.31892e-05
1.33324e-07
1.31801e-05
1.11194e-07
1.31768e-05
1.04668e-07
1.31752e-05
1.09997e-07
1.31731e-05
1.08739e-07
1.31718e-05
1.00565e-07
1.3173e-05
9.51172e-08
1.31761e-05
9.44634e-08
1.31799e-05
9.24143e-08
1.31846e-05
8.83798e-08
1.31898e-05
8.38158e-08
1.31961e-05
7.91674e-08
7.55401e-08
1.32033e-05
1.388e-05
3.02057e-08
1.38623e-05
-4.03469e-08
1.38628e-05
1.4839e-08
1.38549e-05
1.11546e-07
1.3832e-05
6.52031e-08
1.38254e-05
5.4623e-08
1.38265e-05
1.17039e-07
1.3819e-05
1.40848e-07
1.3809e-05
1.21185e-07
1.38043e-05
1.09319e-07
1.38027e-05
1.11624e-07
1.38011e-05
1.10329e-07
1.37999e-05
1.01766e-07
1.38009e-05
9.40986e-08
1.38044e-05
9.09885e-08
1.38085e-05
8.83224e-08
1.38139e-05
8.29192e-08
1.38191e-05
7.86391e-08
1.38257e-05
7.25751e-08
6.81423e-08
1.38331e-05
1.45438e-05
3.00505e-08
1.45249e-05
-2.14076e-08
1.45227e-05
1.70631e-08
1.45172e-05
1.17034e-07
1.44947e-05
8.76247e-08
1.44838e-05
6.55567e-08
1.4484e-05
1.16839e-07
1.44783e-05
1.46606e-07
1.44681e-05
1.31329e-07
1.44621e-05
1.15327e-07
1.446e-05
1.13698e-07
1.44588e-05
1.11552e-07
1.44578e-05
1.0277e-07
1.44587e-05
9.31911e-08
1.44622e-05
8.74855e-08
1.44668e-05
8.37343e-08
1.44727e-05
7.7019e-08
1.44784e-05
7.29541e-08
1.4485e-05
6.59459e-08
6.03172e-08
1.44928e-05
1.52391e-05
2.97999e-08
1.52204e-05
-2.65271e-09
1.52145e-05
2.298e-08
1.52104e-05
1.2105e-07
1.51895e-05
1.08585e-07
1.51748e-05
8.02851e-08
1.5173e-05
1.18613e-07
1.51685e-05
1.51129e-07
1.51587e-05
1.41074e-07
1.51515e-05
1.22571e-07
1.51487e-05
1.16516e-07
1.51475e-05
1.1269e-07
1.51468e-05
1.03491e-07
1.51476e-05
9.23964e-08
1.5151e-05
8.41097e-08
1.51562e-05
7.85324e-08
1.51619e-05
7.12385e-08
1.51689e-05
6.60494e-08
1.51755e-05
5.92919e-08
5.22842e-08
1.51835e-05
1.59674e-05
2.9715e-08
1.59491e-05
1.56487e-08
1.59398e-05
3.22919e-08
1.59364e-05
1.24476e-07
1.59173e-05
1.27691e-07
1.58998e-05
9.77931e-08
1.58951e-05
1.23253e-07
1.58911e-05
1.55129e-07
1.5882e-05
1.50167e-07
1.58738e-05
1.30794e-07
1.587e-05
1.20318e-07
1.58687e-05
1.14043e-07
1.58682e-05
1.03987e-07
1.58689e-05
9.16938e-08
1.58721e-05
8.08876e-08
1.58776e-05
7.29693e-08
1.58835e-05
6.53784e-08
1.58911e-05
5.84806e-08
1.5899e-05
5.13363e-08
4.49447e-08
1.59064e-05
1.67303e-05
3.0024e-08
1.67126e-05
3.33866e-08
1.67005e-05
4.43677e-08
1.66966e-05
1.28322e-07
1.66794e-05
1.44885e-07
1.66601e-05
1.17087e-07
1.66523e-05
1.31128e-07
1.66479e-05
1.5949e-07
1.66394e-05
1.58664e-07
1.66305e-05
1.39661e-07
1.66256e-05
1.25293e-07
1.66237e-05
1.1592e-07
1.66232e-05
1.04432e-07
1.66239e-05
9.10731e-08
1.66269e-05
7.7838e-08
1.66324e-05
6.75339e-08
1.66389e-05
5.882e-08
1.66468e-05
5.05462e-08
1.66553e-05
4.28553e-08
3.64972e-08
1.66638e-05
1.75295e-05
3.08623e-08
1.75139e-05
4.90292e-08
1.74983e-05
5.99397e-08
1.7493e-05
1.33656e-07
1.74775e-05
1.60353e-07
1.74572e-05
1.37366e-07
1.74462e-05
1.42143e-07
1.74406e-05
1.65098e-07
1.74324e-05
1.66872e-07
1.74231e-05
1.48949e-07
1.74169e-05
1.31503e-07
1.74142e-05
1.18649e-07
1.74135e-05
1.05124e-07
1.74139e-05
9.06213e-08
1.74167e-05
7.50222e-08
1.7422e-05
6.22431e-08
1.74292e-05
5.16827e-08
1.74375e-05
4.21696e-08
1.74467e-05
3.37383e-08
2.68062e-08
1.74564e-05
1.83669e-05
3.23488e-08
1.83523e-05
6.35803e-08
1.83348e-05
7.74291e-08
1.83274e-05
1.41104e-07
1.83131e-05
1.74592e-07
1.82925e-05
1.58007e-07
1.82786e-05
1.56035e-07
1.82711e-05
1.72635e-07
1.82627e-05
1.75278e-07
1.8253e-05
1.58629e-07
1.82455e-05
1.38953e-07
1.82416e-05
1.22529e-07
1.82403e-05
1.06494e-07
1.82404e-05
9.05225e-08
1.82429e-05
7.25116e-08
1.82481e-05
5.70549e-08
1.82555e-05
4.42213e-08
1.82645e-05
3.31559e-08
1.82746e-05
2.37115e-08
1.60312e-08
1.82854e-05
1.92442e-05
3.45301e-08
1.92308e-05
7.69646e-08
1.92118e-05
9.64746e-08
1.92018e-05
1.51044e-07
1.91882e-05
1.88259e-07
1.91676e-05
1.78622e-07
1.91511e-05
1.72481e-07
1.91412e-05
1.82516e-07
1.9132e-05
1.84519e-07
1.91217e-05
1.6887e-07
1.9113e-05
1.47702e-07
1.91077e-05
1.27865e-07
1.91052e-05
1.08962e-07
1.91046e-05
9.10766e-08
1.91067e-05
7.04798e-08
1.91117e-05
5.20339e-08
1.91194e-05
3.65602e-08
1.91291e-05