/*--------------------------------*- C++ -*----------------------------------*\
| =========                 |                                                 |
| \\      /  F ield         | OpenFOAM: The Open Source CFD Toolbox           |
|  \\    /   O peration     | Version:  v2012                                 |
|   \\  /    A nd           | Website:  www.openfoam.com                      |
|    \\/     M anipulation  |                                                 |
\*---------------------------------------------------------------------------*/
FoamFile
{
    version     2.0;
    format      ascii;
    class       volScalarField;
    location    "0.15";
    object      p;
}
// * * * * * * * * * * * * * * * * * * * * * * * * * * * * * * * * * * * * * //

dimensions      [0 2 -2 0 0 0 0];


internalField   nonuniform List<scalar> 
17600
(
-2.8244e-11
-0.00384827
-0.0029572
-0.00174395
-0.0031137
-0.00306938
-0.00251197
-0.00201746
-0.00233636
-0.00193554
-0.00161921
-0.00125779
-0.00120908
-0.000739055
-0.000163695
0.000777522
0.00125936
0.00250894
0.00423265
0.00778392
4.78621e-08
-0.00385138
-0.00295579
-0.00174454
-0.00311178
-0.00307165
-0.00251193
-0.002025
-0.00233486
-0.00194415
-0.0016171
-0.00126196
-0.00120721
-0.000747103
-0.000160259
0.0007424
0.00127156
0.0024693
0.00424732
0.00746312
-2.19563e-06
-0.00385544
-0.00295383
-0.00174575
-0.00310745
-0.00307531
-0.00251199
-0.00203092
-0.00233268
-0.00194996
-0.00161333
-0.00126851
-0.00120516
-0.000757517
-0.000155681
0.000710931
0.00128404
0.0024198
0.00424364
0.00702982
-7.86019e-06
-0.00385905
-0.00295217
-0.0017479
-0.0031006
-0.00307862
-0.00251266
-0.00203649
-0.00233049
-0.00195643
-0.00160914
-0.00127567
-0.00120376
-0.000767713
-0.000151343
0.000679234
0.00129297
0.00236831
0.00421376
0.00661223
-1.66973e-05
-0.0038616
-0.00295079
-0.0017514
-0.00309107
-0.00308159
-0.00251406
-0.00204184
-0.00232832
-0.00196395
-0.00160446
-0.00128351
-0.00120225
-0.000778661
-0.00014679
0.0006458
0.0013007
0.0023139
0.00415603
0.00621683
-2.81544e-05
-0.00386255
-0.00294952
-0.0017564
-0.00307926
-0.00308452
-0.00251588
-0.00204702
-0.00232606
-0.00197243
-0.0015993
-0.00129213
-0.00120026
-0.000790736
-0.000141596
0.000611051
0.00130658
0.00225569
0.00406943
0.00584486
-4.15931e-05
-0.00386158
-0.00294819
-0.00176279
-0.00306589
-0.00308751
-0.00251769
-0.00205202
-0.0023237
-0.00198169
-0.00159385
-0.00130148
-0.00119783
-0.000803766
-0.000136192
0.000575656
0.00130833
0.00219413
0.00395474
0.00549293
-5.63852e-05
-0.0038587
-0.00294666
-0.00177028
-0.00305167
-0.00309057
-0.00251929
-0.00205693
-0.00232123
-0.00199164
-0.00158832
-0.00131151
-0.00119518
-0.0008176
-0.000131325
0.000540492
0.00130349
0.00213073
0.00381333
0.00515534
-7.20402e-05
-0.00385421
-0.00294484
-0.00177859
-0.0030371
-0.00309371
-0.00252062
-0.00206188
-0.00231872
-0.00200225
-0.00158282
-0.00132217
-0.0011926
-0.00083199
-0.000127806
0.000506448
0.00129003
0.00206656
0.00364702
0.00482606
-8.82759e-05
-0.0038486
-0.00294269
-0.00178744
-0.0030225
-0.00309693
-0.00252175
-0.00206697
-0.00231624
-0.00201349
-0.00157744
-0.00133331
-0.00119041
-0.000846511
-0.000126599
0.000474334
0.00126642
0.00200246
0.00345878
0.00450004
-0.000104991
-0.00384237
-0.00294022
-0.0017966
-0.00300803
-0.00310023
-0.00252276
-0.00207226
-0.00231386
-0.00202513
-0.00157229
-0.00134469
-0.00118901
-0.00086066
-0.000128666
0.000444743
0.0012314
0.00193549
0.00325304
0.00417376
-0.000122189
-0.00383591
-0.00293746
-0.00180583
-0.00299376
-0.00310358
-0.00252371
-0.00207775
-0.00231168
-0.00203701
-0.00156754
-0.001356
-0.0011889
-0.000873962
-0.000134785
0.000418161
0.00118451
0.00186386
0.00303479
0.00384522
-0.000139907
-0.00382947
-0.00293444
-0.00181493
-0.00297976
-0.00310692
-0.00252468
-0.00208337
-0.00230982
-0.00204896
-0.00156345
-0.00136689
-0.00119056
-0.000886003
-0.000145633
0.000393901
0.00112646
0.00178465
0.00280858
0.00351376
-0.000158183
-0.0038232
-0.00293121
-0.00182372
-0.00296611
-0.00311019
-0.00252575
-0.00208904
-0.00230842
-0.00206078
-0.00156031
-0.00137701
-0.00119449
-0.000896376
-0.000161712
0.000370771
0.00105902
0.00169539
0.002578
0.00317969
-0.00017705
-0.00381715
-0.00292784
-0.00183205
-0.00295293
-0.00311331
-0.00252703
-0.00209464
-0.00230769
-0.00207221
-0.00155847
-0.00138604
-0.00120119
-0.00090483
-0.000183095
0.000346556
0.000984391
0.00159456
0.00234547
0.00284416
-0.000196534
-0.00381133
-0.00292441
-0.00183974
-0.00294035
-0.00311618
-0.00252866
-0.00210001
-0.0023079
-0.002083
-0.00155823
-0.00139372
-0.001211
-0.000911781
-0.000209193
0.000319194
0.00090406
0.00148116
0.00211262
0.00250907
-0.000216658
-0.00380576
-0.00292104
-0.00184663
-0.00292854
-0.00311867
-0.0025308
-0.00210492
-0.00230931
-0.00209296
-0.00155986
-0.00139983
-0.00122397
-0.00091845
-0.000238686
0.000287179
0.000818368
0.00135496
0.00188066
0.00217719
-0.000237444
-0.00380041
-0.00291787
-0.00185252
-0.00291769
-0.00312063
-0.00253367
-0.00210917
-0.00231214
-0.00210198
-0.00156357
-0.00140437
-0.00123979
-0.000926367
-0.000270278
0.000249523
0.000727202
0.0012166
0.00165015
0.00185193
-0.000258912
-0.00379526
-0.00291508
-0.00185718
-0.002908
-0.0031219
-0.00253746
-0.00211257
-0.00231659
-0.00211003
-0.00156937
-0.00140784
-0.0012576
-0.000936908
-0.000303628
0.000205549
0.000630438
0.00106695
0.00142073
0.00153653
-0.000281082
-0.00379029
-0.00291289
-0.00186037
-0.00289969
-0.00312232
-0.00254241
-0.00211495
-0.00232277
-0.00211725
-0.00157709
-0.00141115
-0.00127619
-0.000950944
-0.000339065
0.000155222
0.000528015
0.000906803
0.00119123
0.00123304
-0.000303974
-0.00378543
-0.00291155
-0.00186183
-0.002893
-0.00312168
-0.00254877
-0.00211621
-0.00233063
-0.00212394
-0.00158624
-0.00141554
-0.00129464
-0.000968793
-0.00037724
9.90499e-05
0.00042035
0.000737238
0.000960438
0.000941937
-0.000327608
-0.00378063
-0.00291136
-0.00186128
-0.00288817
-0.00311985
-0.00255667
-0.00211644
-0.00233999
-0.00213058
-0.00159594
-0.00142231
-0.00131269
-0.00099048
-0.000419413
3.73409e-05
0.00030821
0.000560094
0.000727865
0.000662506
-0.000352012
-0.00377579
-0.00291267
-0.0018584
-0.00288541
-0.00311671
-0.00256618
-0.00211587
-0.00235045
-0.00213805
-0.00160494
-0.00143235
-0.00133068
-0.00101549
-0.000467289
-3.07097e-05
0.000192767
0.000378013
0.000493776
0.00039345
-0.000377216
-0.0037708
-0.00291587
-0.00185291
-0.00288495
-0.00311219
-0.00257722
-0.00211492
-0.00236133
-0.00214763
-0.00161209
-0.00144575
-0.00134972
-0.0010426
-0.000521831
-0.000106996
7.49954e-05
0.000194224
0.000259101
0.000133083
-0.000403259
-0.00376549
-0.00292141
-0.00184452
-0.00288691
-0.00310644
-0.0025895
-0.0021142
-0.00237166
-0.00216069
-0.00161686
-0.00146198
-0.00137174
-0.00107056
-0.00058209
-0.000193439
-4.55972e-05
1.22547e-05
2.59717e-05
-0.000120252
-0.000430199
-0.00375969
-0.00292974
-0.00183294
-0.00289131
-0.00309983
-0.00260254
-0.00211446
-0.00238014
-0.00217834
-0.00161946
-0.00147983
-0.00139917
-0.00109945
-0.000645972
-0.000290992
-0.000171565
-0.000165075
-0.000201684
-0.000367027
-0.0004581
-0.00375315
-0.00294139
-0.00181799
-0.002898
-0.00309279
-0.00261579
-0.00211684
-0.00238528
-0.00220115
-0.001621
-0.00149741
-0.00143402
-0.00113127
-0.000710804
-0.00039826
-0.000306213
-0.00033759
-0.000419171
-0.000605388
-0.00048706
-0.00374561
-0.00295685
-0.00179956
-0.00290679
-0.00308579
-0.00262819
-0.00212283
-0.00238585
-0.00222888
-0.00162372
-0.00151242
-0.001477
-0.00116888
-0.000774608
-0.000511819
-0.000451557
-0.00050856
-0.000623581
-0.000831316
-0.0005172
-0.00373672
-0.00297668
-0.00177766
-0.00291728
-0.00307975
-0.00263832
-0.00213395
-0.0023814
-0.00226049
-0.00163072
-0.00152268
-0.00152701
-0.00121582
-0.000837159
-0.000627617
-0.000607147
-0.000682368
-0.000815566
-0.00104042
-0.000548669
-0.00372607
-0.00300142
-0.00175243
-0.00292979
-0.00307596
-0.00264473
-0.00215141
-0.00237223
-0.00229403
-0.00164528
-0.00152727
-0.00158136
-0.00127566
-0.000900286
-0.000741148
-0.000769624
-0.000862457
-0.000999033
-0.00123043
-0.000581665
-0.00371325
-0.0030315
-0.00172424
-0.00294133
-0.00307573
-0.00264586
-0.00217586
-0.00235984
-0.00232666
-0.00167031
-0.00152771
-0.00163604
-0.00135066
-0.000967916
-0.000848256
-0.000933323
-0.00104997
-0.00117951
-0.00140278
-0.00061642
-0.00369778
-0.00306716
-0.00169378
-0.00295116
-0.00308054
-0.00264036
-0.00220708
-0.00234706
-0.00235482
-0.0017074
-0.00152736
-0.00168627
-0.00144022
-0.00104522
-0.000947304
-0.00109162
-0.00124299
-0.00136245
-0.00156262
-0.000653185
-0.00367917
-0.00310866
-0.001662
-0.00295774
-0.00309207
-0.00262752
-0.00224392
-0.00233736
-0.002375
-0.00175616
-0.00153138
-0.00172809
-0.00154022
-0.00113783
-0.00104127
-0.00123785
-0.00143606
-0.00155154
-0.00171771
-0.000692303
-0.00365685
-0.00315608
-0.00163015
-0.00295899
-0.00311192
-0.00260743
-0.00228432
-0.00233482
-0.00238479
-0.00181406
-0.00154587
-0.00176054
-0.0016445
-0.00124916
-0.00113715
-0.00136774
-0.00162035
-0.00174655
-0.00187622
-0.000734131
-0.00363029
-0.00320925
-0.00159907
-0.00295279
-0.00314141
-0.00258115
-0.00232508
-0.00234368
-0.00238425
-0.00187655
-0.00157632
-0.00178655
-0.00174543
-0.00137746
-0.00124283
-0.00148307
-0.00178675
-0.00194154
-0.00204367
-0.000779016
-0.00359906
-0.00326773
-0.00157161
-0.00293705
-0.00318136
-0.00255105
-0.00236196
-0.00236714
-0.00237571
-0.00193744
-0.00162586
-0.00181163
-0.00183608
-0.00151605
-0.00136467
-0.0015921
-0.00192992
-0.00212574
-0.00221966
-0.000827408
-0.00356272
-0.00333069
-0.00154981
-0.0029097
-0.00323187
-0.00252061
-0.0023902
-0.00240658
-0.00236338
-0.00199027
-0.00169426
-0.00184314
-0.00191305
-0.00165654
-0.00150408
-0.00170478
-0.00205225
-0.00228806
-0.00239626
-0.000879707
-0.00352098
-0.00339687
-0.00153594
-0.00286931
-0.00329188
-0.002494
-0.0024053
-0.00246135
-0.00235412
-0.00202967
-0.00177741
-0.0018897
-0.00197794
-0.00178954
-0.00165668
-0.00182975
-0.00216296
-0.00242316
-0.00256041
-0.000936278
-0.00347374
-0.00346462
-0.00153275
-0.00281502
-0.00335892
-0.00247605
-0.00240405
-0.00252858
-0.00235603
-0.00205285
-0.00186791
-0.00195854
-0.00203754
-0.00190639
-0.00181351
-0.00197153
-0.00227395
-0.00253437
-0.00270003
-0.000997503
-0.00342104
-0.00353208
-0.0015429
-0.00274682
-0.00342954
-0.00247182
-0.00238533
-0.0026035
-0.00237707
-0.00206149
-0.0019558
-0.00205206
-0.00210144
-0.00200268
-0.0019634
-0.0021288
-0.00239641
-0.00263182
-0.00280999
-0.00106368
-0.00336304
-0.0035971
-0.00156874
-0.00266573
-0.00349954
-0.00248602
-0.00235027
-0.0026791
-0.00242315
-0.00206136
-0.0020306
-0.00216643
-0.00218088
-0.00208148
-0.00209449
-0.00229362
-0.00253805
-0.00272918
-0.00289411
-0.00113502
-0.0033004
-0.00365715
-0.00161215
-0.00257333
-0.00356397
-0.00252212
-0.0023023
-0.00274685
-0.00249655
-0.002061
-0.00208409
-0.00229261
-0.00228568
-0.00215327
-0.00219786
-0.00245205
-0.00270037
-0.00284088
-0.00296376
-0.0012115
-0.00323434
-0.00370983
-0.00167416
-0.00247503
-0.00362286
-0.00258163
-0.00224719
-0.00279812
-0.00259579
-0.00207177
-0.00211302
-0.00241857
-0.00241974
-0.0022315
-0.00227251
-0.00258844
-0.00287589
-0.00297824
-0.00303548
-0.001293
-0.00316593
-0.00375294
-0.00175503
-0.00237422
-0.00365695
-0.00266462
-0.00219277
-0.00282563
-0.00271528
-0.00210541
-0.00212035
-0.00253034
-0.0025789
-0.00233033
-0.0023276
-0.00269014
-0.00304845
-0.0031447
-0.00312752
-0.00137943
-0.00309638
-0.00378418
-0.00185446
-0.00227534
-0.00366916
-0.00276945
-0.00214846
-0.00282525
-0.00284622
-0.00217137
-0.00211467
-0.00261506
-0.00275207
-0.00246056
-0.00237861
-0.00275287
-0.00319821
-0.00333239
-0.00325398
-0.00147032
-0.00302733
-0.00380187
-0.00197084
-0.0021842
-0.00365619
-0.00289136
-0.00212353
-0.00279755
-0.00297745
-0.00227463
-0.00210825
-0.00266488
-0.00292449
-0.00262542
-0.0024429
-0.00278378
-0.00330884
-0.00352298
-0.00341868
-0.00156501
-0.00296079
-0.00380509
-0.00210115
-0.00210679
-0.00361706
-0.00302346
-0.00212591
-0.00274724
-0.00309623
-0.00241379
-0.00211567
-0.00267978
-0.00307981
-0.00281959
-0.00253583
-0.00279811
-0.00337296
-0.00369374
-0.00361246
-0.00166267
-0.00289863
-0.00379352
-0.00224159
-0.00204845
-0.00355301
-0.00315763
-0.00216099
-0.00268198
-0.00319047
-0.00258136
-0.00215126
-0.00266786
-0.00320265
-0.00303023
-0.00266693
-0.00281472
-0.00339496
-0.00382568
-0.00381556
-0.00176236
-0.00284275
-0.00376753
-0.00238803
-0.00201367
-0.00346405
-0.00328484
-0.00223074
-0.0026123
-0.0032519
-0.00276583
-0.00222552
-0.00264291
-0.00328271
-0.00323971
-0.00283758
-0.00285235
-0.00338819
-0.00390889
-0.00400424
-0.0018633
-0.00279494
-0.00372825
-0.00253704
-0.00200555
-0.00336262
-0.00339637
-0.00233357
-0.0025502
-0.00327771
-0.00295317
-0.00234213
-0.00262155
-0.00331856
-0.00342931
-0.0030402
-0.00292551
-0.00337123
-0.00394449
-0.00415834
-0.00196443
-0.00275648
-0.00367768
-0.00268539
-0.00202555
-0.0032528
-0.00348477
-0.00246439
-0.00250726
-0.00327091
-0.00312841
-0.00249729
-0.00262049
-0.00331832
-0.00358291
-0.00325935
-0.00304124
-0.0033642
-0.00394261
-0.00426609
-0.00206463
-0.00272826
-0.00361807
-0.00281701
-0.00207347
-0.00314241
-0.00354506
-0.00261533
-0.00249281
-0.00323927
-0.00327843
-0.00268089
-0.0026528
-0.00329632
-0.00369118
-0.00347547
-0.00319716
-0.00338456
-0.00391982
-0.00432579
-0.00216291
-0.00271085
-0.00355234
-0.0029349
-0.00214733
-0.00303957
-0.00357537
-0.00277638
-0.00251247
-0.00319349
-0.00339476
-0.00287929
-0.00272482
-0.00326972
-0.00375433
-0.00367013
-0.00338192
-0.00344309
-0.0038957
-0.00434489
-0.00225833
-0.00270437
-0.00348413
-0.00303662
-0.00224315
-0.00295175
-0.00357777
-0.00293683
-0.00256736
-0.00314591
-0.00347474
-0.00307753
-0.00283547
-0.00325522
-0.0037809
-0.00383
-0.00357846
-0.00354143
-0.00388831
-0.00433766
-0.00235013
-0.00270843
-0.00341705
-0.00312085
-0.00235565
-0.00288499
-0.00355724
-0.00308679
-0.00265437
-0.00310846
-0.00352148
-0.00326169
-0.00297744
-0.00326536
-0.00378405
-0.00394951
-0.00376894
-0.00367248
-0.00390991
-0.00432157
-0.00243777
-0.00272214
-0.00335394
-0.00318753
-0.00247909
-0.00284334
-0.00352024
-0.00321856
-0.00276694
-0.00309068
-0.00354256
-0.00342133
-0.00313926
-0.00330666
-0.00377889
-0.00403076
-0.00393907
-0.00382336
-0.00396472
-0.00431298
-0.00252097
-0.00274432
-0.00328961
-0.00323778
-0.00260724
-0.0028283
-0.00347457
-0.0033276
-0.00289651
-0.00309833
-0.00354786
-0.00355113
-0.00330791
-0.00337931
-0.00377929
-0.00408147
-0.00408039
-0.00397933
-0.00404917
-0.00432337
-0.00259964
-0.00277419
-0.00324345
-0.00327365
-0.00273414
-0.00283912
-0.00342822
-0.00341269
-0.00303365
-0.00313295
-0.0035479
-0.00365113
-0.00347126
-0.00347806
-0.00379529
-0.00411267
-0.00419069
-0.00412743
-0.00415438
-0.00435759
-0.00267381
-0.00281055
-0.00320787
-0.00329765
-0.0028552
-0.00287324
-0.00338817
-0.00347549
-0.00316951
-0.00319227
-0.00355207
-0.00372564
-0.00362009
-0.00359424
-0.00383188
-0.00413602
-0.00427315
-0.00425876
-0.00426935
-0.00441424
-0.00274373
-0.00285197
-0.00318361
-0.00331268
-0.002967
-0.00292666
-0.00335983
-0.00351991
-0.00329703
-0.00327139
-0.00356717
-0.00378135
-0.00374932
-0.00371808
-0.00388904
-0.00416136
-0.00433452
-0.00436924
-0.00438385
-0.00448763
-0.00280972
-0.00289714
-0.00317118
-0.00332244
-0.00306724
-0.00299444
-0.00334654
-0.00355111
-0.00341162
-0.00336394
-0.00359673
-0.00382577
-0.00385787
-0.00384083
-0.00396298
-0.00419511
-0.00438298
-0.00445916
-0.00449029
-0.00457024
-0.00287223
-0.00294485
-0.00317
-0.00333015
-0.00315535
-0.0030716
-0.00334961
-0.00357459
-0.00351131
-0.00346325
-0.00364124
-0.00386584
-0.00394771
-0.00395608
-0.00404786
-0.00423993
-0.00442608
-0.00453197
-0.00458454
-0.00465485
-0.00293177
-0.00299405
-0.00317884
-0.00333849
-0.00323213
-0.00315352
-0.00336854
-0.00359548
-0.00359637
-0.00356338
-0.00369884
-0.00390688
-0.00402269
-0.00406023
-0.00413751
-0.00429531
-0.00446944
-0.00459261
-0.00466564
-0.00473596
-0.00298878
-0.0030439
-0.00319643
-0.0033495
-0.00329894
-0.0032363
-0.00340145
-0.00361791
-0.00366872
-0.00365979
-0.00376619
-0.00395216
-0.00408734
-0.00415223
-0.00422667
-0.00435864
-0.00451616
-0.004646
-0.00473497
-0.00481033
-0.00304364
-0.00309384
-0.00322134
-0.00336448
-0.00335757
-0.00331705
-0.00344564
-0.00364468
-0.00373116
-0.00374964
-0.0038394
-0.00400293
-0.00414589
-0.00423294
-0.00431162
-0.00442645
-0.0045671
-0.00469605
-0.00479515
-0.00487688
-0.00309669
-0.00314347
-0.00325211
-0.0033841
-0.00340997
-0.0033939
-0.00349805
-0.00367717
-0.00378669
-0.00383172
-0.00391479
-0.00405883
-0.0042016
-0.0043043
-0.00439037
-0.0044954
-0.00462151
-0.00474519
-0.00484898
-0.00493603
-0.0031482
-0.00319256
-0.00328732
-0.00340843
-0.00345796
-0.00346586
-0.00355565
-0.00371558
-0.00383803
-0.00390604
-0.00398936
-0.00411847
-0.00425651
-0.00436862
-0.00446233
-0.00456284
-0.00467782
-0.00479446
-0.00489876
-0.00498905
-0.00319834
-0.0032409
-0.00332573
-0.00343714
-0.00350308
-0.0035327
-0.0036158
-0.00375922
-0.00388726
-0.00397342
-0.00406105
-0.00418
-0.00431151
-0.00442797
-0.00452788
-0.00462705
-0.00473426
-0.00484386
-0.00494605
-0.00503735
-0.00324717
-0.00328837
-0.00336622
-0.00346957
-0.00354648
-0.00359461
-0.00367634
-0.00380683
-0.00393573
-0.00403502
-0.00412866
-0.00424159
-0.00436658
-0.00448388
-0.00458789
-0.00468719
-0.0047893
-0.00489278
-0.00499157
-0.00508214
-0.00329468
-0.0033348
-0.00340787
-0.0035049
-0.00358888
-0.00365205
-0.0037357
-0.00385691
-0.00398405
-0.00409201
-0.0041917
-0.00430172
-0.0044212
-0.00453722
-0.00464324
-0.00474299
-0.00484188
-0.00494049
-0.00503552
-0.00512422
-0.00334074
-0.00338001
-0.00344986
-0.00354219
-0.00363062
-0.00370552
-0.00379281
-0.00390796
-0.00403225
-0.00414533
-0.00425018
-0.00435927
-0.00447455
-0.0045883
-0.0046947
-0.00479459
-0.00489137
-0.00498624
-0.00507772
-0.00516397
-0.00338516
-0.00342376
-0.00349148
-0.0035805
-0.0036717
-0.00375544
-0.00384696
-0.00395858
-0.00407991
-0.00419558
-0.00430431
-0.0044135
-0.00452583
-0.00463706
-0.00474273
-0.00484228
-0.00493748
-0.00502948
-0.00511782
-0.00520147
-0.00342764
-0.00346573
-0.00353208
-0.00361888
-0.00371184
-0.0038021
-0.00389773
-0.00400763
-0.00412639
-0.00424301
-0.00435429
-0.00446396
-0.00457429
-0.00468318
-0.00478754
-0.00488627
-0.00498008
-0.0050698
-0.00515547
-0.00523663
-0.00346781
-0.00350553
-0.00357101
-0.00365643
-0.00375055
-0.00384553
-0.00394481
-0.0040542
-0.00417098
-0.00428757
-0.00440028
-0.00451039
-0.00461937
-0.00472627
-0.00482907
-0.00492665
-0.00501911
-0.00510695
-0.00519036
-0.00526925
-0.00350519
-0.00354267
-0.00360766
-0.00369228
-0.00378723
-0.00388555
-0.00398787
-0.00409745
-0.00421287
-0.00432897
-0.00444228
-0.00455262
-0.00466067
-0.00476595
-0.00486718
-0.00496343
-0.00505453
-0.00514073
-0.00522225
-0.00529916
-0.00353924
-0.00357659
-0.00364134
-0.00372562
-0.00382121
-0.00392189
-0.00402657
-0.00413666
-0.00425121
-0.00436666
-0.00448005
-0.00459044
-0.00469781
-0.00480181
-0.0049016
-0.00499649
-0.00508626
-0.00517103
-0.00525097
-0.00532619
-0.00356931
-0.00360663
-0.00367135
-0.0037556
-0.00385179
-0.00395413
-0.00406055
-0.0041712
-0.00428519
-0.00440002
-0.00451321
-0.00462348
-0.00473033
-0.00483334
-0.00493191
-0.00502556
-0.00511411
-0.00519762
-0.00527623
-0.00535007
-0.00359464
-0.00363212
-0.00369699
-0.00378143
-0.00387815
-0.00398165
-0.00408931
-0.00420043
-0.00431409
-0.00442839
-0.00454128
-0.00465134
-0.00475777
-0.00486005
-0.0049577
-0.00505035
-0.00513786
-0.00522028
-0.00529778
-0.0053705
-0.00361429
-0.00365228
-0.00371767
-0.00380247
-0.00389961
-0.00400384
-0.00411229
-0.00422375
-0.0043372
-0.00445108
-0.00456363
-0.00467341
-0.00477948
-0.00488124
-0.00497827
-0.00507028
-0.00515713
-0.00523879
-0.00531539
-0.0053872
-0.00362684
-0.00366605
-0.00373258
-0.00381827
-0.0039161
-0.00402104
-0.00413018
-0.00424206
-0.00435558
-0.00446933
-0.00458168
-0.00469124
-0.004797
-0.00489833
-0.00499488
-0.00508647
-0.00517303
-0.00525459
-0.00533119
-0.00540294
0.0112174
0.00528248
-0.00302044
-0.00904779
-0.0109738
-0.0105766
-0.00985465
-0.0094466
-0.00929508
-0.00924788
-0.00923261
-0.00922924
-0.00923271
-0.00924568
-0.00926996
-0.00929974
-0.00933209
-0.00937384
-0.0094273
-0.00948084
-0.00952284
-0.00955343
-0.009576
-0.00958757
-0.00958418
-0.00956907
-0.00954958
-0.00952935
-0.00950708
-0.00948201
-0.00945715
-0.0094347
-0.00941197
-0.00938634
-0.00936192
-0.00934547
-0.00933687
-0.00932977
-0.009321
-0.00931433
-0.00931402
-0.00931923
-0.00932669
-0.00933561
-0.0093474
-0.00936268
-0.00938112
-0.00940213
-0.00942535
-0.00945106
-0.0094793
-0.00950978
-0.00954239
-0.00957704
-0.00961369
-0.00965225
-0.00969251
-0.00973436
-0.00977787
-0.00982309
-0.0098698
-0.00991786
-0.00996724
-0.010018
-0.01007
-0.0101231
-0.0101773
-0.0102324
-0.0102885
-0.0103456
-0.0104036
-0.0104627
-0.0105227
-0.0105835
-0.0106451
-0.0107073
-0.0107702
-0.0108339
-0.0108984
-0.0109638
-0.0110301
-0.0110972
-0.0111651
-0.0112337
-0.0113029
-0.0113727
-0.0114433
-0.0115146
-0.0115865
-0.0116591
-0.0117324
-0.0118064
-0.0118812
-0.0119566
-0.0120328
-0.0121096
-0.0121873
-0.0122657
-0.0123449
-0.0124248
-0.0125055
-0.0125869
-0.0126691
-0.0127521
-0.0128358
-0.0129203
-0.0130056
-0.0130917
-0.0131786
-0.0132662
-0.0133545
-0.0134436
-0.0135335
-0.0136241
-0.0137156
-0.0138078
-0.013901
-0.0139951
-0.0140901
-0.014186
-0.0142827
-0.0143803
-0.0144787
-0.014578
-0.0146782
-0.0147793
-0.0148814
-0.0149843
-0.0150882
-0.0151931
-0.0152989
-0.0154057
-0.0155134
-0.0156221
-0.0157318
-0.0158424
-0.0159541
-0.0160668
-0.0161805
-0.0162952
-0.016411
-0.0165278
-0.0166456
-0.0167646
-0.0168846
-0.0170056
-0.0171278
-0.0172511
-0.0173755
-0.017501
-0.0176276
-0.0177554
-0.0178844
-0.0180145
-0.0181458
-0.0182783
-0.018412
-0.0185469
-0.018683
-0.0188203
-0.0189589
-0.0190988
-0.0192399
-0.0193823
-0.019526
-0.019671
-0.0198173
-0.0199649
-0.0201138
-0.0202641
-0.0204158
-0.0205688
-0.0207232
-0.020879
-0.0210361
-0.0211949
-0.0213547
-0.0215166
-0.021679
-0.0218442
-0.0220089
-0.0221778
-0.0223448
-0.0225174
-0.022687
-0.0228623
-0.0230362
-0.0232121
-0.0233924
-0.0235673
-0.0237533
-0.02393
-0.0241151
-0.0242994
-0.0244766
-0.0246643
-0.0248374
-0.0250064
-0.0251713
-0.0253041
0.0104811
0.00511254
-0.00293861
-0.0089148
-0.0108961
-0.01054
-0.00983169
-0.00943017
-0.0092829
-0.00923832
-0.00922473
-0.00922257
-0.00922699
-0.00924075
-0.00926569
-0.00929603
-0.00932885
-0.009371
-0.00942481
-0.00947866
-0.00952094
-0.00955176
-0.00957456
-0.00958635
-0.00958317
-0.00956822
-0.00954886
-0.00952876
-0.00950659
-0.00948159
-0.00945679
-0.0094344
-0.00941175
-0.00938617
-0.00936177
-0.00934533
-0.00933676
-0.00932969
-0.00932094
-0.00931427
-0.00931397
-0.0093192
-0.00932666
-0.00933559
-0.00934739
-0.00936267
-0.00938111
-0.00940212
-0.00942535
-0.00945106
-0.0094793
-0.00950978
-0.00954239
-0.00957704
-0.0096137
-0.00965225
-0.00969251
-0.00973436
-0.00977787
-0.00982309
-0.00986981
-0.00991786
-0.00996724
-0.010018
-0.01007
-0.0101231
-0.0101773
-0.0102324
-0.0102885
-0.0103456
-0.0104036
-0.0104627
-0.0105227
-0.0105835
-0.0106451
-0.0107073
-0.0107702
-0.0108339
-0.0108984
-0.0109638
-0.0110301
-0.0110972
-0.0111651
-0.0112337
-0.0113029
-0.0113727
-0.0114433
-0.0115146
-0.0115865
-0.0116591
-0.0117324
-0.0118064
-0.0118812
-0.0119566
-0.0120328
-0.0121096
-0.0121873
-0.0122657
-0.0123449
-0.0124248
-0.0125055
-0.0125869
-0.0126691
-0.0127521
-0.0128358
-0.0129203
-0.0130056
-0.0130917
-0.0131786
-0.0132662
-0.0133545
-0.0134436
-0.0135335
-0.0136241
-0.0137156
-0.0138078
-0.013901
-0.0139951
-0.0140901
-0.014186
-0.0142827
-0.0143803
-0.0144787
-0.014578
-0.0146782
-0.0147793
-0.0148814
-0.0149843
-0.0150882
-0.0151931
-0.0152989
-0.0154057
-0.0155134
-0.0156221
-0.0157318
-0.0158424
-0.0159541
-0.0160668
-0.0161805
-0.0162952
-0.016411
-0.0165278
-0.0166456
-0.0167646
-0.0168846
-0.0170056
-0.0171278
-0.0172511
-0.0173755
-0.017501
-0.0176276
-0.0177554
-0.0178844
-0.0180145
-0.0181458
-0.0182783
-0.018412
-0.0185469
-0.018683
-0.0188203
-0.0189589
-0.0190988
-0.0192399
-0.0193823
-0.019526
-0.019671
-0.0198173
-0.0199649
-0.0201138
-0.0202641
-0.0204158
-0.0205688
-0.0207232
-0.020879
-0.0210361
-0.0211949
-0.0213547
-0.0215166
-0.021679
-0.0218442
-0.0220089
-0.0221778
-0.0223448
-0.0225174
-0.022687
-0.0228623
-0.0230362
-0.0232121
-0.0233924
-0.0235673
-0.0237533
-0.02393
-0.0241151
-0.0242994
-0.0244766
-0.0246643
-0.0248374
-0.0250064
-0.0251712
-0.0253041
0.00971396
0.00494816
-0.00276005
-0.00866297
-0.010755
-0.0104852
-0.00980326
-0.00940886
-0.00926598
-0.00922488
-0.00921386
-0.00921359
-0.00921944
-0.0092343
-0.00926013
-0.00929122
-0.00932469
-0.00936739
-0.00942166
-0.0094759
-0.0095185
-0.00954961
-0.00957266
-0.00958469
-0.00958175
-0.00956703
-0.00954786
-0.00952792
-0.0095059
-0.00948101
-0.00945628
-0.00943396
-0.0094114
-0.00938589
-0.00936153
-0.00934513
-0.0093366
-0.00932957
-0.00932083
-0.00931418
-0.0093139
-0.00931915
-0.00932662
-0.00933556
-0.00934736
-0.00936265
-0.0093811
-0.00940211
-0.00942535
-0.00945106
-0.00947929
-0.00950978
-0.00954239
-0.00957704
-0.0096137
-0.00965225
-0.00969251
-0.00973436
-0.00977787
-0.00982309
-0.00986981
-0.00991787
-0.00996724
-0.010018
-0.01007
-0.0101231
-0.0101773
-0.0102324
-0.0102885
-0.0103456
-0.0104036
-0.0104627
-0.0105227
-0.0105835
-0.0106451
-0.0107073
-0.0107702
-0.0108339
-0.0108984
-0.0109638
-0.0110301
-0.0110972
-0.0111651
-0.0112337
-0.0113029
-0.0113727
-0.0114433
-0.0115146
-0.0115865
-0.0116591
-0.0117324
-0.0118064
-0.0118812
-0.0119566
-0.0120328
-0.0121096
-0.0121873
-0.0122657
-0.0123449
-0.0124248
-0.0125055
-0.0125869
-0.0126691
-0.0127521
-0.0128358
-0.0129203
-0.0130056
-0.0130917
-0.0131786
-0.0132662
-0.0133545
-0.0134436
-0.0135335
-0.0136241
-0.0137156
-0.0138078
-0.013901
-0.0139951
-0.0140901
-0.014186
-0.0142827
-0.0143803
-0.0144787
-0.014578
-0.0146782
-0.0147793
-0.0148814
-0.0149843
-0.0150882
-0.0151931
-0.0152989
-0.0154057
-0.0155134
-0.0156221
-0.0157318
-0.0158424
-0.0159541
-0.0160668
-0.0161805
-0.0162952
-0.016411
-0.0165278
-0.0166456
-0.0167646
-0.0168846
-0.0170056
-0.0171278
-0.0172511
-0.0173755
-0.017501
-0.0176276
-0.0177554
-0.0178844
-0.0180145
-0.0181458
-0.0182783
-0.018412
-0.0185469
-0.018683
-0.0188203
-0.0189589
-0.0190988
-0.0192399
-0.0193823
-0.019526
-0.019671
-0.0198173
-0.0199649
-0.0201138
-0.0202641
-0.0204158
-0.0205688
-0.0207232
-0.020879
-0.0210361
-0.0211949
-0.0213547
-0.0215166
-0.021679
-0.0218442
-0.0220089
-0.0221778
-0.0223448
-0.0225174
-0.022687
-0.0228623
-0.0230362
-0.0232121
-0.0233924
-0.0235673
-0.0237533
-0.02393
-0.0241151
-0.0242994
-0.0244766
-0.0246643
-0.0248374
-0.0250064
-0.0251712
-0.0253041
0.00898555
0.00480531
-0.00251309
-0.00832992
-0.0105586
-0.0104078
-0.0097639
-0.00937812
-0.00924074
-0.0092049
-0.00919802
-0.00920071
-0.00920863
-0.00922498
-0.00925195
-0.00928402
-0.00931842
-0.00936195
-0.00941687
-0.00947162
-0.00951465
-0.00954613
-0.00956948
-0.00958179
-0.00957918
-0.00956482
-0.00954601
-0.00952639
-0.00950464
-0.00947994
-0.00945532
-0.00943312
-0.00941069
-0.00938533
-0.00936108
-0.00934475
-0.00933627
-0.00932929
-0.0093206
-0.00931399
-0.00931375
-0.00931903
-0.00932653
-0.00933547
-0.00934729
-0.00936261
-0.00938106
-0.00940208
-0.00942532
-0.00945104
-0.00947928
-0.00950977
-0.00954238
-0.00957704
-0.00961369
-0.00965224
-0.00969251
-0.00973436
-0.00977787
-0.00982309
-0.00986981
-0.00991787
-0.00996724
-0.010018
-0.01007
-0.0101231
-0.0101773
-0.0102324
-0.0102885
-0.0103456
-0.0104036
-0.0104627
-0.0105227
-0.0105835
-0.0106451
-0.0107073
-0.0107702
-0.0108339
-0.0108984
-0.0109638
-0.0110301
-0.0110972
-0.0111651
-0.0112337
-0.0113029
-0.0113727
-0.0114433
-0.0115146
-0.0115865
-0.0116591
-0.0117324
-0.0118064
-0.0118812
-0.0119566
-0.0120328
-0.0121096
-0.0121873
-0.0122657
-0.0123449
-0.0124248
-0.0125055
-0.0125869
-0.0126691
-0.0127521
-0.0128358
-0.0129203
-0.0130056
-0.0130917
-0.0131786
-0.0132662
-0.0133545
-0.0134436
-0.0135335
-0.0136241
-0.0137156
-0.0138078
-0.013901
-0.0139951
-0.0140901
-0.014186
-0.0142827
-0.0143803
-0.0144787
-0.014578
-0.0146782
-0.0147793
-0.0148814
-0.0149843
-0.0150882
-0.0151931
-0.0152989
-0.0154057
-0.0155134
-0.0156221
-0.0157318
-0.0158424
-0.0159541
-0.0160668
-0.0161805
-0.0162952
-0.016411
-0.0165278
-0.0166456
-0.0167646
-0.0168846
-0.0170056
-0.0171278
-0.0172511
-0.0173755
-0.017501
-0.0176276
-0.0177554
-0.0178844
-0.0180145
-0.0181458
-0.0182783
-0.018412
-0.0185469
-0.018683
-0.0188203
-0.0189589
-0.0190988
-0.0192399
-0.0193823
-0.019526
-0.019671
-0.0198173
-0.0199649
-0.0201138
-0.0202641
-0.0204158
-0.0205688
-0.0207232
-0.020879
-0.0210361
-0.0211949
-0.0213547
-0.0215166
-0.021679
-0.0218442
-0.0220089
-0.0221778
-0.0223448
-0.0225174
-0.022687
-0.0228623
-0.0230362
-0.0232121
-0.0233924
-0.0235673
-0.0237533
-0.02393
-0.0241151
-0.0242994
-0.0244766
-0.0246643
-0.0248374
-0.0250064
-0.0251713
-0.0253041
0.00828452
0.00465172
-0.00224751
-0.00796756
-0.0103384
-0.0103208
-0.0097199
-0.0093409
-0.00920787
-0.00917789
-0.00917623
-0.00918276
-0.00919338
-0.00921161
-0.00923998
-0.00927331
-0.00930898
-0.00935365
-0.00940945
-0.00946484
-0.00950842
-0.00954039
-0.00956411
-0.00957676
-0.00957459
-0.0095608
-0.00954258
-0.00952353
-0.00950226
-0.00947791
-0.00945351
-0.00943147
-0.00940927
-0.00938419
-0.00936019
-0.00934401
-0.00933562
-0.00932871
-0.00932011
-0.0093136
-0.00931344
-0.00931877
-0.00932631
-0.00933528
-0.00934714
-0.00936249
-0.00938096
-0.009402
-0.00942526
-0.00945099
-0.00947925
-0.00950974
-0.00954235
-0.00957703
-0.00961368
-0.00965223
-0.0096925
-0.00973435
-0.00977787
-0.00982308
-0.0098698
-0.00991786
-0.00996724
-0.010018
-0.01007
-0.0101231
-0.0101773
-0.0102324
-0.0102885
-0.0103456
-0.0104036
-0.0104627
-0.0105227
-0.0105835
-0.0106451
-0.0107073
-0.0107702
-0.0108339
-0.0108984
-0.0109638
-0.0110301
-0.0110972
-0.0111651
-0.0112337
-0.0113029
-0.0113727
-0.0114433
-0.0115146
-0.0115865
-0.0116591
-0.0117324
-0.0118064
-0.0118812
-0.0119566
-0.0120328
-0.0121096
-0.0121873
-0.0122657
-0.0123449