/*--------------------------------*- C++ -*----------------------------------*\
| =========                 |                                                 |
| \\      /  F ield         | OpenFOAM: The Open Source CFD Toolbox           |
|  \\    /   O peration     | Version:  v2012                                 |
|   \\  /    A nd           | Website:  www.openfoam.com                      |
|    \\/     M anipulation  |                                                 |
\*---------------------------------------------------------------------------*/
FoamFile
{
    version     2.0;
    format      ascii;
    class       surfaceScalarField;
    location    "0.15";
    object      phi;
}
// * * * * * * * * * * * * * * * * * * * * * * * * * * * * * * * * * * * * * //

dimensions      [0 3 -1 0 0 0 0];
oriented        oriented;


internalField   nonuniform List<scalar> 
34900
(
1.17443e-06
9.51304e-07
1.15149e-06
-5.32516e-07
1.16629e-06
-2.42526e-07
1.15634e-06
-6.12983e-07
1.1638e-06
1.48752e-07
1.14761e-06
1.49888e-07
1.15089e-06
1.3842e-07
1.13951e-06
1.24654e-08
1.14593e-06
2.42178e-08
1.13584e-06
-6.58264e-09
1.1418e-06
7.79644e-08
1.13069e-06
5.96006e-08
1.13767e-06
1.03603e-07
1.12532e-06
3.9157e-08
1.13245e-06
6.11565e-08
1.12076e-06
1.1393e-08
1.12836e-06
4.08899e-08
1.11477e-06
-1.80972e-08
1.11859e-06
5.08581e-08
2.83014e-09
1.08215e-06
1.22364e-06
9.5193e-07
1.20223e-06
-5.11109e-07
1.21528e-06
-2.55574e-07
1.2063e-06
-6.04011e-07
1.21346e-06
1.41598e-07
1.20204e-06
1.61306e-07
1.20216e-06
1.38304e-07
1.19479e-06
1.98324e-08
1.19803e-06
2.0972e-08
1.19236e-06
-9.1048e-10
1.19293e-06
7.7395e-08
1.18952e-06
6.30136e-08
1.18819e-06
1.04934e-07
1.18695e-06
4.03945e-08
1.18151e-06
6.65963e-08
1.18598e-06
6.9244e-09
1.17479e-06
5.20761e-08
1.18377e-06
-2.70775e-08
1.16029e-06
7.43388e-08
-2.05245e-09
1.16517e-06
1.27627e-06
9.58442e-07
1.25762e-06
-4.92454e-07
1.2664e-06
-2.64362e-07
1.25897e-06
-5.96581e-07
1.26231e-06
1.38264e-07
1.25902e-06
1.64589e-07
1.25482e-06
1.42509e-07
1.25413e-06
2.05254e-08
1.25171e-06
2.3389e-08
1.25268e-06
-1.88026e-09
1.24648e-06
8.35963e-08
1.25064e-06
5.88517e-08
1.24307e-06
1.12504e-07
1.24888e-06
3.45855e-08
1.23904e-06
7.64376e-08
1.2466e-06
-6.36774e-10
1.2364e-06
6.22769e-08
1.24074e-06
-3.14143e-08
1.22957e-06
8.55086e-08
1.00401e-08
1.21747e-06
1.33357e-06
9.68979e-07
1.31998e-06
-4.78864e-07
1.32225e-06
-2.6664e-07
1.31673e-06
-5.91059e-07
1.31454e-06
1.40454e-07
1.31925e-06
1.59882e-07
1.31235e-06
1.49406e-07
1.31682e-06
1.60564e-08
1.3107e-06
2.95075e-08
1.31462e-06
-5.80147e-09
1.30624e-06
9.19856e-08
1.31178e-06
5.33071e-08
1.30542e-06
1.1886e-07
1.31057e-06
2.94363e-08
1.30473e-06
8.22851e-08
1.30836e-06
-4.2726e-09
1.30434e-06
6.62998e-08
1.30279e-06
-2.98695e-08
1.29852e-06
8.97774e-08
2.59738e-08
1.28259e-06
1.39655e-06
9.80784e-07
1.38851e-06
-4.70826e-07
1.38426e-06
-2.62385e-07
1.38011e-06
-5.86918e-07
1.37368e-06
1.46884e-07
1.38337e-06
1.502e-07
1.37711e-06
1.55666e-07
1.38323e-06
9.93552e-09
1.37687e-06
3.58636e-08
1.3798e-06
-8.73337e-09
1.3731e-06
9.86865e-08
1.37669e-06
4.97179e-08
1.37397e-06
1.21583e-07
1.37709e-06
2.63111e-08
1.37491e-06
8.44733e-08
1.37622e-06
-5.58932e-09
1.37475e-06
6.77714e-08
1.37116e-06
-2.62829e-08
1.36868e-06
9.22577e-08
4.19806e-08
1.35268e-06
1.46564e-06
9.90824e-07
1.46179e-06
-4.66976e-07
1.45272e-06
-2.53316e-07
1.44887e-06
-5.83074e-07
1.44126e-06
1.54495e-07
1.45234e-06
1.39127e-07
1.44898e-06
1.59024e-07
1.45422e-06
4.69377e-09
1.44944e-06
4.06469e-08
1.45023e-06
-9.52323e-09
1.44586e-06
1.0305e-07
1.4477e-06
4.78769e-08
1.4473e-06
1.21988e-07
1.44942e-06
2.41869e-08
1.44881e-06
8.5083e-08
1.44923e-06
-6.00054e-09
1.44866e-06
6.83367e-08
1.44376e-06
-2.13856e-08
1.44263e-06
9.33916e-08
5.81207e-08
1.42649e-06
1.54037e-06
9.96673e-07
1.53855e-06
-4.65163e-07
1.52699e-06
-2.41756e-07
1.52253e-06
-5.78615e-07
1.51643e-06
1.60601e-07
1.52655e-06
1.29006e-07
1.5261e-06
1.59472e-07
1.52973e-06
1.06533e-09
1.52641e-06
4.39625e-08
1.5258e-06
-8.90867e-09
1.52302e-06
1.0583e-07
1.52412e-06
4.67703e-08
1.52464e-06
1.21477e-07
1.52619e-06
2.26298e-08
1.52622e-06
8.50554e-08
1.5258e-06
-5.58176e-09
1.52597e-06
6.81669e-08
1.51962e-06
-1.50345e-08
1.51982e-06
9.31961e-08
7.40441e-08
1.50389e-06
1.61958e-06
9.97219e-07
1.61802e-06
-4.63595e-07
1.60583e-06
-2.29569e-07
1.60042e-06
-5.73204e-07
1.59697e-06
1.64048e-07
1.60531e-06
1.2067e-07
1.60649e-06
1.58288e-07
1.60874e-06
-1.18014e-09
1.6062e-06
4.64979e-08
1.60511e-06
-7.8188e-09
1.60334e-06
1.07599e-07
1.60424e-06
4.58715e-08
1.60508e-06
1.20637e-07
1.60596e-06
2.17505e-08
1.60638e-06
8.46337e-08
1.6049e-06
-4.09953e-09
1.60583e-06
6.7238e-08
1.59804e-06
-7.24458e-09
1.5993e-06
9.19386e-08
8.91331e-08
1.58421e-06
1.70207e-06
9.92725e-07
1.69983e-06
-4.61361e-07
1.68802e-06
-2.1775e-07
1.68174e-06
-5.6693e-07
1.68082e-06
1.64967e-07
1.68742e-06
1.14077e-07
1.68905e-06
1.56653e-07
1.69028e-06
-2.41424e-09
1.68809e-06
4.86951e-08
1.68697e-06
-6.70661e-09
1.686e-06
1.08575e-07
1.68678e-06
4.50877e-08
1.68785e-06
1.19574e-07
1.68788e-06
2.17134e-08
1.68871e-06
8.38073e-08
1.68602e-06
-1.40823e-09
1.6877e-06
6.55598e-08
1.67867e-06
1.78466e-09
1.68059e-06
9.00148e-08
1.02803e-07
1.66692e-06
1.78714e-06
9.84312e-07
1.78404e-06
-4.5827e-07
1.7729e-06
-2.06609e-07
1.76591e-06
-5.5994e-07
1.76686e-06
1.6402e-07
1.77204e-06
1.08901e-07
1.77359e-06
1.55102e-07
1.77406e-06
-2.89187e-09
1.77208e-06
5.06783e-08
1.771e-06
-5.6287e-09
1.77073e-06
1.08852e-07
1.77131e-06
4.45074e-08
1.77268e-06
1.18202e-07
1.7718e-06
2.25881e-08
1.77314e-06
8.24666e-08
1.76924e-06
2.5001e-09
1.77159e-06
6.3206e-08
1.76166e-06
1.17113e-08
1.76377e-06
8.79075e-08
1.14571e-07
1.752e-06
1.87479e-06
9.73266e-07
1.87097e-06
-4.54441e-07
1.86049e-06
-1.96129e-07
1.85279e-06
-5.52242e-07
1.85496e-06
1.61849e-07
1.85906e-06
1.04802e-07
1.86051e-06
1.53644e-07
1.86039e-06
-2.76567e-09
1.85866e-06
5.24094e-08
1.85749e-06
-4.46123e-09
1.85784e-06
1.08501e-07
1.85808e-06
4.42711e-08
1.8599e-06
1.16378e-07
1.85812e-06
2.43706e-08
1.86009e-06
8.04976e-08
1.85508e-06
7.51033e-09
1.85794e-06
6.03472e-08
1.84756e-06
2.20904e-08
1.84933e-06
8.61337e-08
1.24091e-07
1.83981e-06
1.96552e-06
9.6059e-07
1.96108e-06
-4.50004e-07
1.95118e-06
-1.86226e-07
1.94266e-06
-5.43724e-07
1.94564e-06
1.5887e-07
1.94892e-06
1.01518e-07
1.9505e-06
1.52066e-07
1.94985e-06
-2.11195e-09
1.94846e-06
5.37952e-08
1.94703e-06
-3.03465e-09
1.94798e-06
1.07557e-07
1.94773e-06
4.45197e-08
1.95014e-06
1.13967e-07
1.94749e-06
2.70233e-08
1.95013e-06
7.78554e-08
1.94423e-06
1.34069e-08
1.94731e-06
5.72654e-08
1.93698e-06
3.2426e-08
1.93797e-06
8.51428e-08
1.31211e-07
1.93085e-06
2.05989e-06
9.46886e-07
2.05489e-06
-4.44999e-07
2.04552e-06
-1.76858e-07
2.03604e-06
-5.34243e-07
2.03965e-06
1.55258e-07
2.04228e-06
9.88928e-08
2.04421e-06
1.50129e-07
2.04304e-06
-9.34493e-10
2.0421e-06
5.47296e-08
2.04026e-06
-1.18981e-09
2.0418e-06
1.06011e-07
2.04095e-06
4.53711e-08
2.04404e-06
1.10876e-07
2.04058e-06
3.04846e-08
2.04383e-06
7.46074e-08
2.03735e-06
1.98902e-08
2.04028e-06
5.43335e-08
2.03047e-06
4.22383e-08
2.03038e-06
8.52326e-08
1.35997e-07
2.02559e-06
2.15845e-06
9.32441e-07
2.15285e-06
-4.39405e-07
2.14403e-06
-1.68041e-07
2.13346e-06
-5.23674e-07
2.1377e-06
1.51018e-07
2.13972e-06
9.68814e-08
2.1422e-06
1.47644e-07
2.14044e-06
8.23054e-10
2.14007e-06
5.51071e-08
2.13767e-06
1.20571e-09
2.13986e-06
1.03823e-07
2.13832e-06
4.69055e-08
2.14212e-06
1.07077e-07
2.13796e-06
3.46475e-08
2.14163e-06
7.09411e-08
2.13491e-06
2.66084e-08
2.13729e-06
5.19563e-08
2.1284e-06
5.11225e-08
2.12711e-06
8.65208e-08
1.38706e-07
2.1244e-06
2.26157e-06
9.17363e-07
2.25534e-06
-4.3318e-07
2.24713e-06
-1.59824e-07
2.23537e-06
-5.11914e-07
2.24031e-06
1.46072e-07
2.24168e-06
9.55178e-08
2.24485e-06
1.44471e-07
2.24242e-06
3.25092e-09
2.2427e-06
5.48302e-08
2.23965e-06
4.252e-09
2.24252e-06
1.00953e-07
2.24028e-06
4.91488e-08
2.24473e-06
1.02628e-07
2.24004e-06
3.93331e-08
2.24385e-06
6.71325e-08
2.23724e-06
3.32182e-08
2.23871e-06
5.04875e-08
2.23103e-06
5.87974e-08
2.22861e-06
8.89449e-08
1.3974e-07
2.22758e-06
2.36956e-06
9.0168e-07
2.36267e-06
-4.26287e-07
2.35512e-06
-1.52278e-07
2.34207e-06
-4.98869e-07
2.34784e-06
1.4031e-07
2.34847e-06
9.48807e-08
2.35244e-06
1.40499e-07
2.34925e-06
6.44439e-09
2.35026e-06
5.38193e-08
2.3465e-06
8.00981e-09
2.35006e-06
9.73938e-08
2.34716e-06
5.20541e-08
2.3521e-06
9.76849e-08
2.34716e-06
4.4276e-08
2.35076e-06
6.35279e-08
2.34458e-06
3.94052e-08
2.34489e-06
5.01739e-08
2.33854e-06
6.51479e-08
2.33522e-06
9.22655e-08
1.39587e-07
2.33537e-06
2.48268e-06
8.85395e-07
2.47509e-06
-4.18696e-07
2.46829e-06
-1.45475e-07
2.45387e-06
-4.84452e-07
2.46055e-06
1.33627e-07
2.46037e-06
9.50625e-08
2.46523e-06
1.35642e-07
2.46119e-06
1.04815e-08
2.46298e-06
5.20242e-08
2.45851e-06
1.24888e-08
2.4627e-06
9.32016e-08
2.45926e-06
5.54884e-08
2.46446e-06
9.24884e-08
2.45957e-06
4.91616e-08
2.46263e-06
6.04765e-08
2.45711e-06
4.49256e-08
2.45618e-06
5.10972e-08
2.45107e-06
7.02578e-08
2.44723e-06
9.61052e-08
1.3874e-07
2.44808e-06
2.60119e-06
8.68502e-07
2.59287e-06
-4.10382e-07
2.58689e-06
-1.39489e-07
2.57101e-06
-4.68573e-07
2.5787e-06
1.25932e-07
2.57762e-06
9.61498e-08
2.58342e-06
1.29836e-07
2.5785e-06
1.54068e-08
2.58108e-06
4.94394e-08
2.57594e-06
1.76332e-08
2.58063e-06
8.85135e-08
2.57689e-06
5.92234e-08
2.58202e-06
8.73576e-08
2.57752e-06
5.36621e-08
2.57972e-06
5.82733e-08
2.575e-06
4.9645e-08
2.57294e-06
5.31593e-08
2.56883e-06
7.43723e-08
2.5649e-06
1.00033e-07
1.37619e-07
2.56602e-06
2.72534e-06
8.50995e-07
2.71627e-06
-4.0132e-07
2.71117e-06
-1.3439e-07
2.69375e-06
-4.51153e-07
2.70254e-06
1.17149e-07
2.70048e-06
9.82111e-08
2.70727e-06
1.23046e-07
2.70145e-06
2.12184e-08
2.70477e-06
4.61201e-08
2.6991e-06
2.33067e-08
2.70405e-06
8.35604e-08
2.70033e-06
6.29456e-08
2.70504e-06
8.26477e-08
2.7012e-06
5.75003e-08
2.70238e-06
5.70935e-08
2.69846e-06
5.3571e-08
2.69548e-06
5.61354e-08
2.69206e-06
7.77905e-08
2.68843e-06
1.03662e-07
1.36496e-07
2.68956e-06
2.8554e-06
8.32866e-07
2.84556e-06
-3.91481e-07
2.84142e-06
-1.30249e-07
2.82239e-06
-4.3212e-07
2.83231e-06
1.07226e-07
2.82923e-06
1.01287e-07
2.837e-06
1.15282e-07
2.83036e-06
2.78535e-08
2.83429e-06
4.21972e-08
2.82831e-06
2.92833e-08
2.83321e-06
7.8656e-08
2.82986e-06
6.62981e-08
2.83382e-06
7.86923e-08
2.83081e-06
6.05021e-08
2.83095e-06
5.69612e-08
2.82768e-06
5.68423e-08
2.82408e-06
5.97342e-08
2.82108e-06
8.07836e-08
2.81803e-06
1.0672e-07
1.35478e-07
2.81904e-06
2.99165e-06
8.14106e-07
2.98101e-06
-3.80835e-07
2.9779e-06
-1.27138e-07
2.95719e-06
-4.11415e-07
2.96829e-06
9.61321e-08
2.96419e-06
1.05379e-07
2.97287e-06
1.06607e-07
2.96554e-06
3.51771e-08
2.96986e-06
3.78864e-08
2.96389e-06
3.52495e-08
2.96837e-06
7.41759e-08
2.96574e-06
6.89249e-08
2.96869e-06
7.57483e-08
2.96655e-06
6.26381e-08
2.96577e-06
5.77383e-08
2.96292e-06
5.96918e-08
2.959e-06
6.36536e-08
2.95624e-06
8.35507e-08
2.95388e-06
1.09076e-07
1.34528e-07
2.95483e-06
3.1344e-06
7.94708e-07
3.12291e-06
-3.69343e-07
3.1209e-06
-1.25128e-07
3.09848e-06
-3.88997e-07
3.11075e-06
8.38711e-08
3.10568e-06
1.10445e-07
3.11514e-06
9.71508e-08
3.10734e-06
4.29732e-08
3.11173e-06
3.3493e-08
3.10617e-06
4.08146e-08
3.10982e-06
7.052e-08
3.10821e-06
7.05383e-08
3.11003e-06
7.39268e-08
3.10862e-06
6.40537e-08
3.10719e-06
5.91626e-08
3.10453e-06
6.23563e-08
3.10054e-06
6.76454e-08
3.09788e-06
8.62068e-08
3.09623e-06
1.10728e-07
1.33533e-07
3.09722e-06
3.28396e-06
7.74661e-07
3.27157e-06
-3.5696e-07
3.27074e-06
-1.24293e-07
3.24659e-06
-3.64844e-07
3.25997e-06
7.0484e-08
3.25404e-06
1.16383e-07
3.26407e-06
8.71185e-08
3.2561e-06
5.09398e-08
3.26019e-06
2.94028e-08
3.25546e-06
4.55456e-08
3.25793e-06
6.80512e-08
3.25747e-06
7.09945e-08
3.25826e-06
7.31379e-08
3.25727e-06
6.50473e-08
3.25549e-06
6.0939e-08
3.25286e-06
6.49889e-08
3.24896e-06
7.15495e-08
3.24637e-06
8.87904e-08
3.24534e-06
1.11757e-07
1.32361e-07
3.24652e-06
3.44064e-06
7.53954e-07
3.42731e-06
-3.43636e-07
3.42773e-06
-1.24705e-07
3.40185e-06
-3.38963e-07
3.41627e-06
5.60594e-08
3.40963e-06
1.23023e-07
3.41995e-06
7.67957e-08
3.4122e-06
5.86932e-08
3.41555e-06
2.6053e-08
3.41206e-06
4.90314e-08
3.4131e-06
6.70158e-08
3.41373e-06
7.03588e-08
3.41379e-06
7.30782e-08
3.41284e-06
6.59989e-08
3.41094e-06
6.28371e-08
3.40831e-06
6.76252e-08
3.40459e-06
7.52713e-08
3.40208e-06
9.12941e-08
3.40155e-06
1.1229e-07
1.30916e-07
3.40299e-06
3.60479e-06
7.32575e-07
3.59046e-06
-3.29309e-07
3.59219e-06
-1.26435e-07
3.56462e-06
-3.11394e-07
3.57994e-06
4.07414e-08
3.57284e-06
1.30127e-07
3.58309e-06
6.65485e-08
3.576e-06
6.57801e-08
3.57814e-06
2.39091e-08
3.57625e-06
5.09251e-08
3.57577e-06
6.74921e-08
3.57722e-06
6.89095e-08
3.577e-06
7.33035e-08
3.57574e-06
6.72522e-08
3.57382e-06
6.47581e-08
3.57124e-06
7.02117e-08
3.56778e-06
7.8732e-08
3.56538e-06
9.36904e-08
3.5652e-06
1.12471e-07
1.29157e-07
3.56696e-06
3.77677e-06
7.1051e-07
3.76138e-06
-3.13915e-07
3.76449e-06
-1.29545e-07
3.73531e-06
-2.82218e-07
3.75131e-06
2.47377e-08
3.74406e-06
1.37378e-07
3.75379e-06
5.68215e-08
3.74787e-06
7.16974e-08
3.74838e-06
2.34042e-08
3.74825e-06
5.10555e-08
3.74645e-06
6.92857e-08
3.74822e-06
6.71474e-08
3.74818e-06
7.33376e-08
3.74644e-06
6.89923e-08
3.74446e-06
6.67415e-08
3.74199e-06
7.26777e-08
3.73889e-06
8.18384e-08
3.73665e-06
9.59283e-08
3.73669e-06
1.12434e-07
1.27105e-07
3.73874e-06
3.95695e-06
6.87746e-07
3.94042e-06
-2.97383e-07
3.94496e-06
-1.34083e-07
3.91431e-06
-2.5157e-07
3.93072e-06
8.32838e-09
3.92372e-06
1.44373e-07
3.93241e-06
4.81319e-08
3.92818e-06
7.5928e-08
3.92671e-06
2.48791e-08
3.92831e-06
4.94579e-08
3.92563e-06
7.19657e-08
3.92709e-06
6.56814e-08
3.92761e-06
7.28226e-08
3.92543e-06
7.11734e-08
3.92324e-06
6.89294e-08
3.92094e-06
7.49772e-08
3.91827e-06
8.45069e-08
3.91628e-06
9.79134e-08
3.91643e-06
1.12287e-07
1.2484e-07
3.9187e-06
4.14573e-06
6.64269e-07
4.12799e-06
-2.79646e-07
4.13398e-06
-1.40077e-07
4.10205e-06
-2.1964e-07
4.11851e-06
-8.1283e-09
4.11225e-06
1.50636e-07
4.11935e-06
4.10312e-08
4.11726e-06
7.80127e-08
4.11365e-06
2.84922e-08
4.11667e-06
4.6435e-08
4.11376e-06
7.48748e-08
4.11432e-06
6.51299e-08
4.11552e-06
7.16154e-08
4.11316e-06
7.35407e-08
4.11061e-06
7.14777e-08
4.10846e-06
7.71225e-08
4.10628e-06
8.66889e-08
4.10467e-06
9.95188e-08
4.10488e-06
1.12078e-07
1.22481e-07
4.10724e-06
4.3435e-06
6.40067e-07
4.3245e-06
-2.60638e-07
4.33194e-06
-1.47524e-07
4.299e-06
-1.86694e-07
4.31506e-06
-2.41888e-08
4.31007e-06
1.55625e-07
4.31503e-06
3.6072e-08
4.31543e-06
7.76151e-08
4.30976e-06
3.41602e-08
4.31364e-06
4.25547e-08
4.31125e-06
7.72653e-08
4.31046e-06
6.59198e-08
4.31221e-06
6.98645e-08
4.31006e-06
7.56931e-08
4.30707e-06
7.44623e-08
4.30499e-06
7.92023e-08
4.30329e-06
8.8386e-08
4.30219e-06
1.00622e-07
4.30249e-06
1.11779e-07
1.20142e-07
4.30483e-06
4.55071e-06
6.15132e-07
4.53038e-06
-2.40309e-07
4.53924e-06
-1.56382e-07
4.50562e-06
-1.53073e-07
4.52076e-06
-3.93366e-08
4.51762e-06
1.58768e-07
4.51994e-06
3.37488e-08
4.52296e-06
7.45966e-08
4.51564e-06
4.14866e-08
4.51959e-06
3.86045e-08
4.51838e-06
7.84691e-08
4.51614e-06
6.81627e-08
4.51802e-06
6.79871e-08
4.51648e-06
7.72297e-08
4.51317e-06
7.77775e-08
4.511e-06
8.13678e-08
4.50972e-06
8.96605e-08
4.50921e-06
1.01142e-07
4.50969e-06
1.11294e-07
1.17891e-07
4.51194e-06
4.76778e-06
5.89463e-07
4.7461e-06
-2.18627e-07
4.75628e-06
-1.66555e-07
4.7224e-06
-1.19199e-07
4.73605e-06
-5.29872e-08
4.73533e-06
1.59491e-07
4.73463e-06
3.44445e-08
4.74014e-06
6.90928e-08
4.73187e-06
4.97593e-08
4.735e-06
3.5473e-08
4.73544e-06
7.80222e-08
4.73199e-06
7.16153e-08
4.7334e-06
6.65778e-08
4.73275e-06
7.78816e-08
4.7294e-06
8.11275e-08
4.72701e-06
8.37518e-08
4.72603e-06
9.06475e-08
4.7261e-06
1.01067e-07
4.7269e-06
1.10494e-07
1.15724e-07
4.72907e-06
4.9952e-06
5.63064e-07
4.97216e-06
-1.95587e-07
4.9835e-06
-1.77893e-07
4.94987e-06
-8.55777e-08
4.96139e-06
-6.44997e-08
4.96363e-06
1.5725e-07
4.95973e-06
3.83433e-08
4.96726e-06
6.15635e-08
4.95898e-06
5.80381e-08
4.96045e-06
3.4003e-08
4.96269e-06
7.57769e-08
4.9586e-06
7.57115e-08
4.95896e-06
6.62164e-08
4.95919e-06
7.76539e-08
4.95622e-06
8.4097e-08
4.95361e-06
8.63602e-08
4.95272e-06
9.15417e-08
4.95329e-06
1.0049e-07
4.95454e-06
1.0925e-07
1.13571e-07
4.95669e-06
5.23343e-06
5.35951e-07
5.20906e-06
-1.71221e-07
5.22134e-06
-1.90175e-07
5.18857e-06
-5.27996e-08
5.19728e-06
-7.32103e-08
5.2029e-06
1.51626e-07
5.19591e-06
4.53318e-08
5.20471e-06
5.2762e-08
5.19744e-06
6.53131e-08
5.19663e-06
3.48134e-08
5.20043e-06
7.19789e-08
5.19648e-06
7.96575e-08
5.19539e-06
6.73062e-08
5.19621e-06
7.6837e-08
5.19401e-06
8.62907e-08
5.19136e-06
8.90183e-08
5.19037e-06
9.25272e-08
5.19125e-06
9.96055e-08
5.19301e-06
1.07497e-07
1.11309e-07
5.19527e-06
5.48298e-06
5.08158e-07
5.45737e-06
-1.45605e-07
5.4703e-06
-2.03111e-07
5.43901e-06
-2.1508e-08
5.4443e-06
-7.84946e-08
5.45351e-06
1.42406e-07
5.44386e-06
5.49867e-08
5.45297e-06
4.36554e-08
5.44764e-06
7.06365e-08
5.44428e-06
3.81747e-08
5.449e-06
6.72586e-08
5.44603e-06
8.26268e-08
5.44345e-06
6.9891e-08
5.44434e-06
7.59482e-08
5.44315e-06
8.74781e-08
5.44076e-06
9.1412e-08
5.43961e-06
9.36702e-08
5.44055e-06
9.86715e-08
5.44275e-06
1.05295e-07
1.08802e-07
5.44526e-06
5.74438e-06
4.79735e-07
5.71765e-06
-1.18875e-07
5.73087e-06
-2.16329e-07
5.70176e-06
7.60408e-09
5.70308e-06
-7.9821e-08
5.71585e-06
1.29639e-07
5.70426e-06
6.65796e-08
5.71257e-06
3.53484e-08
5.70996e-06
7.32455e-08
5.70421e-06
4.39168e-08
5.70893e-06
6.25442e-08
5.7076e-06
8.396e-08
5.70388e-06
7.36092e-08
5.70424e-06
7.559e-08
5.70403e-06
8.76795e-08
5.70226e-06
9.319e-08
5.70107e-06
9.48616e-08
5.70182e-06
9.79187e-08
5.70426e-06
1.0285e-07
1.05956e-07
5.70711e-06
6.01818e-06
4.5075e-07
5.99053e-06
-9.12254e-08
6.00358e-06
-2.29382e-07
5.97737e-06
3.38168e-08
5.97432e-06
-7.6771e-08
5.99035e-06
1.1361e-07
5.97775e-06
7.9175e-08
5.98417e-06
2.8932e-08
5.9847e-06
7.27081e-08
5.97721e-06
5.14098e-08
5.98087e-06
5.88813e-08
5.98149e-06
8.33445e-08
5.97732e-06
7.77823e-08
5.97666e-06
7.62445e-08
5.97718e-06
8.71657e-08
5.97629e-06
9.40787e-08
5.97528e-06
9.58662e-08
5.97577e-06
9.74337e-08
5.97816e-06
1.00463e-07
1.02801e-07
5.98131e-06
6.30494e-06
4.21301e-07
6.27663e-06
-6.29207e-08
6.289e-06
-2.41747e-07
6.26637e-06
5.64394e-08
6.25874e-06
-6.9133e-08
6.27744e-06
9.49083e-08
6.26499e-06
9.16203e-08
6.2685e-06
2.54263e-08
6.27219e-06
6.90168e-08
6.26396e-06
5.96428e-08
6.26566e-06
5.71789e-08
6.26806e-06
8.09396e-08
6.2643e-06
8.15445e-08
6.26245e-06
7.80948e-08
6.26321e-06
8.6411e-08
6.2633e-06
9.3988e-08
6.26277e-06
9.63974e-08
6.26307e-06
9.71255e-08
6.26514e-06
9.83921e-08
9.95267e-08
6.26842e-06
6.60526e-06
3.91511e-07
6.57663e-06
-3.42907e-08
6.58773e-06
-2.52849e-07
6.56933e-06
7.48384e-08
6.55712e-06
-5.69148e-08
6.57765e-06
7.43778e-08
6.56656e-06
1.02702e-07
6.56643e-06
2.55592e-08
6.57279e-06
6.26624e-08
6.56506e-06
6.73655e-08
6.5642e-06
5.80455e-08
6.56778e-06
7.73558e-08
6.56526e-06
8.40619e-08
6.56244e-06
8.09222e-08
6.56287e-06
8.59749e-08
6.5638e-06
9.30631e-08
6.56401e-06
9.61789e-08
6.56435e-06
9.6795e-08
6.56601e-06
9.67309e-08
9.64217e-08
6.56911e-06
6.91977e-06
3.61529e-07
6.89121e-06
-5.73022e-09
6.90045e-06
-2.62084e-07
6.88678e-06
8.85059e-08
6.87026e-06
-4.0394e-08
6.89157e-06
5.30706e-08
6.883e-06
1.11272e-07
6.87891e-06
2.96421e-08
6.88702e-06
5.45544e-08
6.881e-06
7.33875e-08
6.87749e-06
6.15496e-08
6.88128e-06
7.35674e-08
6.88058e-06
8.47603e-08
6.87736e-06
8.41517e-08
6.87701e-06
8.63155e-08
6.87841e-06
9.16648e-08
6.87953e-06
9.5058e-08
6.88016e-06
9.61728e-08
6.88148e-06
9.54066e-08
9.37231e-08
6.88418e-06
7.24913e-06
3.31537e-07
7.22109e-06
2.23066e-08
7.22785e-06
-2.68842e-07
7.21925e-06
9.71011e-08
7.19899e-06
-2.01318e-08
7.21987e-06
3.21904e-08
7.21478e-06
1.16369e-07
7.2069e-06
3.75213e-08
7.21555e-06
4.58974e-08
7.21219e-06
7.67513e-08
7.2065e-06
6.72433e-08
7.20941e-06
7.06489e-08
7.21067e-06
8.35074e-08
7.20782e-06
8.69985e-08
7.20655e-06
8.75804e-08
7.20792e-06
9.03022e-08
7.20986e-06
9.31144e-08
7.21108e-06
9.49541e-08
7.21225e-06
9.42365e-08
9.15252e-08
7.21445e-06
7.59402e-06
3.01744e-07
7.56701e-06
4.93178e-08
7.57071e-06
-2.72544e-07
7.56733e-06
1.00485e-07
7.54415e-06
3.04232e-09
7.56332e-06
1.30222e-08
7.56241e-06
1.1728e-07
7.5513e-06
4.86351e-08
7.55917e-06
3.8022e-08
7.55905e-06
7.68731e-08
7.55203e-06
7.42626e-08
7.55319e-06
6.94872e-08
7.55601e-06
8.06884e-08
7.55433e-06
8.86784e-08
7.55239e-06
8.95223e-08
7.5532e-06
8.94862e-08
7.55564e-06
9.0683e-08
7.55768e-06
9.29089e-08
7.55898e-06
9.29425e-08
8.97745e-08
7.56073e-06
7.95517e-06
2.72383e-07
7.92971e-06
7.47773e-08
7.92985e-06
-2.72679e-07
7.93159e-06
9.87479e-08
7.90657e-06
2.80574e-08
7.92276e-06
-3.17119e-09
7.92634e-06
1.13707e-07
7.91305e-06
6.19194e-08
7.91884e-06
3.22311e-08
7.92196e-06
7.3759e-08
7.91485e-06
8.13696e-08
7.9137e-06
7.06393e-08
7.91731e-06
7.70764e-08
7.91736e-06
8.86285e-08
7.91529e-06
9.15958e-08
7.91526e-06
8.95111e-08
7.91767e-06
8.82737e-08
7.92055e-06
9.00319e-08
7.9223e-06
9.1187e-08
8.82923e-08
7.92379e-06
8.33336e-06
2.43703e-07
8.30998e-06
9.81618e-08
8.30615e-06
-2.6885e-07
8.31268e-06
9.2221e-08
8.28707e-06
5.36626e-08
8.29915e-06
-1.52478e-08
8.30709e-06
1.05769e-07
8.29301e-06
7.59931e-08
8.29563e-06
2.96135e-08
8.30147e-06
6.79192e-08
8.29557e-06
8.72648e-08
8.29206e-06
7.41563e-08
8.29547e-06
7.36603e-08
8.29741e-06
8.66915e-08
8.29588e-06
9.31207e-08
8.29508e-06
9.03177e-08
8.29694e-06
8.64117e-08
8.30035e-06
8.66193e-08
8.30286e-06
8.86842e-08
8.67855e-08
8.30436e-06
8.7294e-06
2.15964e-07
8.7086e-06
1.18958e-07
8.70054e-06
-2.60785e-07
8.71131e-06
8.14541e-08
8.68642e-06
7.85446e-08
8.69354e-06
-2.23615e-08
8.70526e-06
9.40424e-08
8.69192e-06
8.93415e-08
8.69071e-06
3.08188e-08
8.69831e-06
6.03216e-08
8.69471e-06
9.08604e-08
8.68933e-06
7.9536e-08
8.69158e-06
7.14118e-08
8.69509e-06
8.31839e-08
8.69477e-06
9.34402e-08
8.69355e-06
9.15397e-08
8.69453e-06
8.54272e-08
8.69795e-06
8.31967e-08
8.70127e-06
8.53664e-08
8.48913e-08
8.70317e-06
9.14415e-06
1.89433e-07
9.12639e-06
1.36718e-07
9.11405e-06
-2.48445e-07
9.12823e-06
6.72763e-08
9.10538e-06
1.01397e-07
9.10708e-06
-2.40698e-08
9.12164e-06
7.94812e-08
9.1104e-06
1.00588e-07
9.10532e-06
3.59008e-08
9.11337e-06
5.2266e-08
9.11275e-06
9.14819e-08
9.10646e-06
8.58251e-08
9.10683e-06
7.10459e-08
9.11122e-06
7.87915e-08
9.11254e-06
9.21176e-08
9.11143e-06
9.2648e-08
9.11153e-06
8.53315e-08
9.11442e-06
8.03102e-08
9.1183e-06
8.14849e-08
8.23143e-08
9.12087e-06
9.57852e-06
1.64371e-07
9.56418e-06
1.51062e-07
9.54774e-06
-2.32003e-07
9.56429e-06
5.07227e-08
9.54467e-06
1.21017e-07
9.54099e-06
-2.03925e-08
9.55705e-06
6.3427e-08
9.5491e-06
1.08532e-07
9.54062e-06
4.43852e-08
9.54777e-06
4.51147e-08
9.55025e-06
8.89985e-08
9.54424e-06
9.18411e-08
9.54245e-06
7.2828e-08
9.54683e-06
7.44121e-08
9.54985e-06
8.90974e-08
9.54945e-06
9.30569e-08
9.54892e-06
8.58526e-08
9.55091e-06
7.83225e-08
9.55488e-06
7.75194e-08
7.89901e-08
9.5582e-06
1.00335e-05
1.41013e-07
1.00228e-05
1.61723e-07
1.00027e-05
-2.11843e-07
1.00204e-05
3.29455e-08
1.00051e-05
1.36405e-07
9.99643e-06
-1.17608e-08
1.00125e-05
4.73389e-08
1.00086e-05
1.12435e-07
9.99773e-06
5.52687e-08
1.00027e-05
4.00971e-08
1.00079e-05
8.38362e-08
1.00033e-05
9.64197e-08
9.99968e-06
7.64837e-08
1.00031e-05
7.09589e-08
1.00075e-05
8.47174e-08
1.00083e-05
9.22595e-08
1.00076e-05
8.6565e-08
1.00086e-05
7.73017e-08
1.00122e-05
7.39797e-08
7.51396e-08
1.0016e-05
1.05101e-05
1.19561e-07
1.05033e-05
1.68559e-07
1.048e-05
-1.88551e-07
1.04978e-05
1.51583e-08
1.04873e-05
1.46848e-07
1.04745e-05
1.00252e-09
1.04892e-05
3.26738e-08
1.04896e-05
1.12039e-07
1.04776e-05
6.72424e-08
1.04797e-05
3.80482e-08
1.04866e-05
7.68765e-08
1.04844e-05
9.86808e-08
1.04796e-05
8.12788e-08
1.04814e-05
6.91247e-08
1.04865e-05
7.96255e-08
1.04888e-05
8.99945e-08
1.04884e-05
8.69639e-08
1.04886e-05
7.70658e-08
1.04914e-05
7.12161e-08
7.11742e-08
1.04953e-05
1.10094e-05
1.00178e-07
1.10064e-05
1.7157e-07
1.09807e-05
-1.62883e-07
1.09974e-05
-1.50461e-09
1.09922e-05
1.52069e-07
1.09765e-05
1.66871e-08
1.09884e-05
2.07294e-08
1.09928e-05
1.0762e-07
1.09812e-05
7.88797e-08
1.098e-05
3.92788e-08
1.09876e-05
6.92616e-08
1.09881e-05
9.8216e-08
1.09831e-05
8.62242e-08
1.09831e-05
6.91764e-08
1.09881e-05
7.46236e-08
1.09917e-05
8.63388e-08
1.09921e-05
8.65543e-08
1.09919e-05
7.72794e-08
1.09938e-05
6.93404e-08
6.752e-08
1.09974e-05
1.15326e-05
8.29576e-08
1.15332e-05
1.70938e-07
1.15061e-05
-1.35756e-07
1.15206e-05
-1.59984e-08
1.15205e-05
1.5218e-07
1.15033e-05
3.38626e-08
1.15116e-05
1.2467e-08
1.15192e-05
9.99394e-08
1.15093e-05
8.88415e-08
1.1505e-05
4.35425e-08
1.15121e-05
6.21812e-08
1.15152e-05
9.51432e-08
1.15111e-05
9.03113e-08
1.15094e-05
7.08939e-08
1.15135e-05
7.0474e-08
1.15182e-05
8.16929e-08
1.15197e-05
8.49938e-08
1.15195e-05
7.75037e-08
1.15206e-05
6.82671e-08
6.44712e-08
1.15236e-05
1.20808e-05
6.79418e-08
1.20848e-05
1.66972e-07
1.20572e-05
-1.0814e-07
1.20687e-05
-2.7467e-08
1.20732e-05
1.47615e-07
1.2056e-05
5.10775e-08
1.206e-05
8.4359e-09
1.20699e-05
9.00516e-08
1.20627e-05
9.6114e-08
1.20561e-05
5.01154e-08
1.20616e-05
5.66483e-08
1.20667e-05
9.0026e-08
1.20643e-05
9.27358e-08
1.20615e-05
7.36784e-08
1.20643e-05
6.7688e-08
1.20693e-05
7.66673e-08
1.20721e-05
8.22129e-08
1.20723e-05
7.72713e-08
1.20728e-05
6.77645e-08
6.21474e-08
1.20752e-05
1.26554e-05
5.51116e-08
1.26623e-05
1.6011e-07
1.26351e-05
-8.09981e-08
1.2643e-05
-3.53507e-08
1.26515e-05
1.39139e-07
1.26356e-05
6.70011e-08
1.26354e-05
8.66139e-09
1.26462e-05
7.91949e-08
1.26422e-05
1.00125e-07
1.26343e-05
5.79732e-08
1.26377e-05
5.33143e-08
1.2644e-05
8.37045e-08
1.26437e-05
9.30576e-08
1.26406e-05
7.676e-08
1.26419e-05
6.63984e-08
1.26466e-05
7.19059e-08
1.26504e-05
7.84394e-08
1.26515e-05
7.62162e-08
1.26518e-05
6.74847e-08
6.05146e-08
1.26534e-05
1.32577e-05
4.43877e-08
1.32669e-05
1.50888e-07
1.32411e-05
-5.52192e-08
1.32452e-05
-3.94035e-08
1.32566e-05
1.27741e-07
1.3243e-05
8.05643e-08
1.3239e-05
1.26675e-08
1.32496e-05
6.8618e-08
1.32489e-05
1.00788e-07
1.32409e-05
6.59895e-08
1.32418e-05
5.23716e-08
1.32484e-05
7.71115e-08
1.32502e-05
9.12686e-08
1.32476e-05
7.93697e-08
1.32476e-05
6.63812e-08
1.32516e-05
6.79164e-08
1.32559e-05
7.41093e-08
1.3258e-05
7.41911e-08
1.32584e-05
6.70337e-08
5.94115e-08
1.32595e-05
1.38889e-05
3.56318e-08
1.38999e-05
1.39907e-07
1.38762e-05
-3.1564e-08
1.38765e-05
-3.97033e-08
1.38897e-05
1.14561e-07
1.38793e-05
9.10031e-08
1.38723e-05
1.9613e-08
1.38816e-05
5.93965e-08
1.38839e-05
9.84642e-08
1.38768e-05
7.31254e-08
1.38756e-05
5.35653e-08
1.38816e-05
7.10978e-08
1.38851e-05
8.77313e-08
1.38836e-05
8.08903e-08
1.38828e-05
6.71871e-08
1.38857e-05
6.49544e-08
1.38901e-05
6.97192e-08
1.3893e-05
7.13021e-08
1.3894e-05
6.60847e-08
5.8577e-08
1.38948e-05
1.45506e-05
2.86616e-08
1.45627e-05
1.27798e-07
1.45418e-05
-1.06493e-08
1.45387e-05
-3.65813e-08
1.45525e-05
1.00743e-07
1.45456e-05
9.792e-08
1.45368e-05
2.84365e-08
1.45439e-05
5.22939e-08
1.45485e-05
9.38461e-08
1.4543e-05
7.85932e-08
1.45403e-05
5.63079e-08
1.45451e-05
6.6283e-08
1.45498e-05
8.30429e-08
1.45497e-05
8.0978e-08
1.45486e-05
6.82676e-08
1.45506e-05
6.30132e-08
1.45546e-05
6.56859e-08
1.45581e-05
6.78401e-08
1.45597e-05
6.44757e-08
5.77115e-08
1.45605e-05
1.52443e-05
2.32576e-08
1.52569e-05
1.15173e-07
1.52391e-05
7.14852e-09
1.52332e-05
-3.06561e-08
1.52466e-05
8.73431e-08
1.52432e-05
1.01294e-07
1.52336e-05
3.80318e-08
1.52382e-05
4.76832e-08
1.52443e-05
8.77988e-08
1.52409e-05
8.1948e-08
1.52374e-05
5.98481e-08
1.52407e-05
6.29593e-08
1.52459e-05
7.78787e-08
1.52472e-05
7.96037e-08
1.52464e-05
6.90868e-08
1.52475e-05
6.18927e-08
1.5251e-05
6.22606e-08
1.52546e-05
6.4163e-08
1.52569e-05
6.22348e-08
5.65703e-08
1.5258e-05
1.59714e-05
1.91876e-08
1.5984e-05
1.02604e-07
1.59695e-05
2.15987e-08
1.59615e-05
-2.26278e-08
1.59736e-05
7.51872e-08
1.59735e-05
1.01442e-07
1.59642e-05
4.73749e-08
1.59663e-05
4.55478e-08
1.59729e-05
8.12034e-08
1.59717e-05
8.31054e-08
1.59681e-05
6.34348e-08
1.597e-05
6.10875e-08
1.5975e-05
7.28513e-08
1.59776e-05
7.70043e-08
1.59775e-05
6.9239e-08
1.59781e-05
6.12694e-08
1.59809e-05
5.95204e-08
1.59844e-05
6.05865e-08
1.59871e-05
5.95311e-08
5.50275e-08
1.59887e-05
1.67336e-05
1.62131e-08
1.67456e-05
9.05432e-08
1.67345e-05
3.27392e-08
1.67252e-05
-1.32864e-08
1.67355e-05
6.48393e-08
1.6738e-05
9.89241e-08
1.67298e-05
5.56351e-08
1.67298e-05
4.55472e-08
1.67361e-05
7.48269e-08
1.6737e-05
8.22885e-08
1.67339e-05
6.64404e-08
1.67347e-05
6.0374e-08
1.67391e-05
6.84031e-08
1.67425e-05
7.35768e-08
1.67433e-05
6.85197e-08
1.67437e-05
6.07782e-08
1.67459e-05
5.73943e-08
1.67491e-05
5.73234e-08
1.67521e-05
5.65918e-08
5.30858e-08
1.6754e-05
1.75325e-05
1.41051e-08
1.75437e-05
7.93299e-08
1.75356e-05
4.07883e-08
1.75258e-05
-3.4202e-09
1.7534e-05
5.6603e-08
1.75385e-05
9.44426e-08
1.75319e-05
6.224e-08
1.75303e-05
4.71234e-08
1.75359e-05
6.92288e-08
1.75383e-05
7.99267e-08
1.75363e-05
6.8439e-08
1.75362e-05
6.03919e-08
1.75399e-05
6.47525e-08
1.75437e-05
6.97577e-08
1.75453e-05
6.6932e-08
1.7546e-05
6.01009e-08
1.75477e-05
5.57084e-08
1.75505e-05
5.44684e-08
1.75535e-05
5.3628e-08
5.08395e-08
1.75557e-05
1.83698e-05
1.2644e-08
1.83799e-05
6.92188e-08
1.83746e-05
4.60909e-08
1.8365e-05
6.23799e-09
1.8371e-05
5.05394e-08
1.83767e-05
8.87272e-08
1.83721e-05
6.68952e-08
1.83696e-05
4.96264e-08
1.83741e-05
6.47175e-08
1.83775e-05
7.65404e-08
1.83767e-05
6.92336e-08
1.83764e-05
6.06919e-08
1.83792e-05
6.19067e-08
1.83831e-05
6.59221e-08
1.83854e-05
6.4635e-08
1.83864e-05
5.90296e-08
1.83879e-05
5.4242e-08
1.83904e-05
5.20105e-08
1.83932e-05
5.07911e-08
4.84205e-08
1.83956e-05
1.92474e-05
1.16424e-08
1.92563e-05
6.03198e-08
1.92533e-05
4.90808e-08
1.92444e-05
1.51426e-08
1.92485e-05
4.64674e-08
1.92547e-05
8.24528e-08
1.92521e-05
6.95597e-08
1.92493e-05
5.24226e-08
1.92526e-05
6.13544e-08
1.92565e-05
7.26379e-08
1.92569e-05
6.88368e-08
1.92568e-05
6.08792e-08
1.92589e-05
5.97236e-08
1.92625e-05
6.23231e-08
1.92653e-05
6.18651e-08
1.92669e-05
5.74873e-08
1.92683e-05