/*--------------------------------*- C++ -*----------------------------------*\
| =========                 |                                                 |
| \\      /  F ield         | OpenFOAM: The Open Source CFD Toolbox           |
|  \\    /   O peration     | Version:  v2012                                 |
|   \\  /    A nd           | Website:  www.openfoam.com                      |
|    \\/     M anipulation  |                                                 |
\*---------------------------------------------------------------------------*/
FoamFile
{
    version     2.0;
    format      ascii;
    class       volVectorField;
    location    "0.15";
    object      U;
}
// * * * * * * * * * * * * * * * * * * * * * * * * * * * * * * * * * * * * * //

dimensions      [0 1 -1 0 0 0 0];


internalField   nonuniform List<vector> 
17600
(
(0.849528 0.0096182 0)
(1.14435 -0.00599456 0)
(0.842076 -0.00278944 0)
(1.14154 -0.00801638 0)
(0.848575 0.00215633 0)
(1.13203 0.00214421 0)
(0.845036 0.00233221 0)
(1.11377 0.000102119 0)
(0.846857 0.000549983 0)
(1.1051 -0.000284491 0)
(0.849178 0.00188969 0)
(1.09518 0.00135973 0)
(0.849566 0.00297711 0)
(1.08908 0.000935942 0)
(0.845697 0.00208597 0)
(1.08418 0.000210138 0)
(0.841019 0.00162211 0)
(1.0822 -0.000868024 0)
(0.82874 0.00211671 0)
(1.08146 -0.000122621 0)
(0.85718 0.00957102 0)
(1.12754 -0.00572137 0)
(0.850128 -0.00295583 0)
(1.1244 -0.00788867 0)
(0.856078 0.0020462 0)
(1.11565 0.00237251 0)
(0.85924 0.00230782 0)
(1.09492 0.000310453 0)
(0.865683 0.000437946 0)
(1.08315 -4.97277e-05 0)
(0.873297 0.0018044 0)
(1.06737 0.0015785 0)
(0.883132 0.0028603 0)
(1.05146 0.00124045 0)
(0.893567 0.00208075 0)
(1.03136 0.000401943 0)
(0.909818 0.00187027 0)
(1.00573 -0.00111462 0)
(0.929023 0.00333764 0)
(0.967266 -0.000796134 0)
(0.872123 0.00958414 0)
(1.10487 -0.00547769 0)
(0.868038 -0.00311428 0)
(1.09748 -0.00776445 0)
(0.873282 0.00195152 0)
(1.08617 0.00253093 0)
(0.885652 0.00233232 0)
(1.06345 0.000400215 0)
(0.897891 0.000414256 0)
(1.04822 2.09926e-06 0)
(0.910343 0.00185814 0)
(1.02811 0.00158398 0)
(0.925585 0.00300081 0)
(1.00958 0.00115867 0)
(0.939845 0.00236504 0)
(0.990299 9.28327e-05 0)
(0.953571 0.00227479 0)
(0.973289 -0.00129557 0)
(0.960452 0.00379935 0)
(0.958156 2.31742e-05 0)
(0.892424 0.00966875 0)
(1.08073 -0.00529726 0)
(0.893622 -0.00318276 0)
(1.06722 -0.00768307 0)
(0.89759 0.0019434 0)
(1.05228 0.00251623 0)
(0.916889 0.00243207 0)
(1.03123 0.000348614 0)
(0.931396 0.000514944 0)
(1.01627 -8.01714e-05 0)
(0.942639 0.00205705 0)
(0.998653 0.00142602 0)
(0.954596 0.00322972 0)
(0.98709 0.000951116 0)
(0.963407 0.00264039 0)
(0.977724 -0.000121196 0)
(0.968417 0.00254827 0)
(0.971852 -0.00130675 0)
(0.96681 0.00401016 0)
(0.965917 0.000909352 0)
(0.915454 0.00978789 0)
(1.05835 -0.0051802 0)
(0.921813 -0.00316262 0)
(1.03958 -0.00763118 0)
(0.923573 0.00201794 0)
(1.02337 0.00238855 0)
(0.944925 0.00255586 0)
(1.0082 0.000232373 0)
(0.957271 0.000655835 0)
(0.997304 -0.000172564 0)
(0.963249 0.00225116 0)
(0.985712 0.00129761 0)
(0.969518 0.00336128 0)
(0.981706 0.000825545 0)
(0.973714 0.00277172 0)
(0.978699 -0.00019804 0)
(0.975037 0.00265586 0)
(0.976296 -0.00120671 0)
(0.972148 0.00413105 0)
(0.971197 0.00181889 0)
(0.938321 0.00990496 0)
(1.0402 -0.00511917 0)
(0.9477 -0.00307343 0)
(1.01864 -0.0075874 0)
(0.946452 0.00213324 0)
(1.00483 0.00221934 0)
(0.965704 0.00264247 0)
(0.996916 0.000123275 0)
(0.97398 0.000769738 0)
(0.990731 -0.000209095 0)
(0.975106 0.00238092 0)
(0.984029 0.00123651 0)
(0.977878 0.00339719 0)
(0.983898 0.000754222 0)
(0.980281 0.00281038 0)
(0.983044 -0.000227728 0)
(0.980783 0.00269668 0)
(0.981166 -0.00104698 0)
(0.977917 0.00422227 0)
(0.976365 0.0026768 0)
(0.95848 0.00999047 0)
(1.02731 -0.00509226 0)
(0.968341 -0.00294197 0)
(1.0055 -0.00753602 0)
(0.964034 0.00223944 0)
(0.996426 0.0020542 0)
(0.979425 0.00267227 0)
(0.993998 4.5073e-05 0)
(0.98413 0.000846343 0)
(0.990933 -0.000202472 0)
(0.9827 0.00246019 0)
(0.986957 0.00120513 0)
(0.98422 0.00338989 0)
(0.988073 0.000698623 0)
(0.985908 0.00281554 0)
(0.98766 -0.000228894 0)
(0.986034 0.00269534 0)
(0.985827 -0.000805582 0)
(0.983106 0.00423813 0)
(0.981482 0.00349956 0)
(0.974293 0.0100258 0)
(1.01924 -0.00507613 0)
(0.983021 -0.00279581 0)
(0.998714 -0.00747081 0)
(0.976393 0.00230733 0)
(0.994566 0.00191281 0)
(0.988063 0.0026611 0)
(0.994793 -5.69211e-06 0)
(0.990424 0.000900293 0)
(0.993194 -0.000180687 0)
(0.988224 0.00251054 0)
(0.990695 0.00117959 0)
(0.989495 0.0033695 0)
(0.992028 0.000658989 0)
(0.990573 0.0028084 0)
(0.99153 -0.000196203 0)
(0.990264 0.00266085 0)
(0.989648 -0.000488306 0)
(0.987267 0.00417909 0)
(0.985743 0.00427456 0)
(0.985293 0.0100063 0)
(1.01471 -0.00505636 0)
(0.9925 -0.00265259 0)
(0.99588 -0.00739294 0)
(0.98456 0.00233354 0)
(0.995485 0.00179835 0)
(0.993384 0.00263359 0)
(0.996315 -3.66934e-05 0)
(0.994358 0.000944977 0)
(0.995286 -0.000157259 0)
(0.99218 0.00254169 0)
(0.993731 0.00115561 0)
(0.993471 0.00334437 0)
(0.994993 0.000643232 0)
(0.993951 0.00278804 0)
(0.994271 -0.000118185 0)
(0.99322 0.00259481 0)
(0.99232 -0.000113611 0)
(0.990217 0.00407848 0)
(0.988824 0.00498284 0)
(0.992031 0.00993992 0)
(1.01239 -0.00502799 0)
(0.998093 -0.00251797 0)
(0.994975 -0.00730558 0)
(0.989623 0.00232782 0)
(0.99688 0.00170782 0)
(0.99649 0.00260542 0)
(0.997427 -5.24322e-05 0)
(0.996664 0.000986201 0)
(0.996631 -0.000135068 0)
(0.994703 0.00255639 0)
(0.995711 0.00113585 0)
(0.996038 0.00331255 0)
(0.99686 0.000655572 0)
(0.996041 0.00274958 0)
(0.995932 9.24284e-06 0)
(0.994994 0.00249617 0)
(0.993938 0.00031177 0)
(0.992062 0.00397043 0)
(0.990814 0.00559954 0)
(0.995628 0.00984004 0)
(1.01126 -0.00499098 0)
(1.00109 -0.0023915 0)
(0.994813 -0.00720978 0)
(0.992491 0.00230188 0)
(0.99787 0.00163654 0)
(0.998105 0.00258056 0)
(0.997993 -5.56096e-05 0)
(0.997852 0.00102387 0)
(0.997331 -0.000112361 0)
(0.996079 0.00255572 0)
(0.996792 0.00112424 0)
(0.99743 0.00326838 0)
(0.997852 0.000698454 0)
(0.997126 0.00268899 0)
(0.996788 0.000179094 0)
(0.995903 0.00237129 0)
(0.994795 0.000767086 0)
(0.993108 0.00388223 0)
(0.992004 0.00610179 0)
(0.997275 0.00971915 0)
(1.01072 -0.00494655 0)
(1.00251 -0.00227159 0)
(0.994871 -0.00710436 0)
(0.993938 0.00226393 0)
(0.998365 0.00157964 0)
(0.998799 0.00255639 0)
(0.998196 -4.85542e-05 0)
(0.998361 0.0010557 0)
(0.997636 -8.54647e-05 0)
(0.99671 0.00254089 0)
(0.997286 0.00112388 0)
(0.99805 0.00320811 0)
(0.998286 0.000769346 0)
(0.997586 0.00260579 0)
(0.997153 0.000381563 0)
(0.9963 0.00223202 0)
(0.9952 0.00121603 0)
(0.993686 0.00383719 0)
(0.992714 0.00647946 0)
(0.997906 0.00958557 0)
(1.01045 -0.0048955 0)
(1.00309 -0.00215735 0)
(0.994967 -0.00698751 0)
(0.994585 0.00221741 0)
(0.998543 0.00153394 0)
(0.999015 0.00252837 0)
(0.998225 -3.20487e-05 0)
(0.99853 0.00107972 0)
(0.997752 -5.13203e-05 0)
(0.996949 0.00251222 0)
(0.997473 0.00113836 0)
(0.998263 0.00312925 0)
(0.998429 0.000863957 0)
(0.997733 0.00250056 0)
(0.997271 0.000610076 0)
(0.996456 0.00209804 0)
(0.99539 0.00163139 0)
(0.994041 0.00385007 0)
(0.993189 0.00673815 0)
(0.998098 0.00944361 0)
(1.01027 -0.00483788 0)
(1.00327 -0.00204897 0)
(0.995057 -0.00685749 0)
(0.994864 0.00216248 0)
(0.998581 0.00149816 0)
(0.999036 0.00249217 0)
(0.998199 -5.64691e-06 0)
(0.998565 0.001094 0)
(0.9978 -6.50544e-06 0)
(0.997027 0.00246776 0)
(0.997533 0.00117145 0)
(0.998308 0.00302837 0)
(0.998453 0.000985429 0)
(0.997759 0.00236959 0)
(0.997291 0.000857319 0)
(0.996524 0.00199992 0)
(0.995503 0.00199932 0)
(0.99431 0.00392387 0)
(0.993573 0.00689802 0)
(0.99814 0.00929501 0)
(1.01011 -0.00477339 0)
(1.00329 -0.00194726 0)
(0.995137 -0.00671282 0)
(0.995013 0.00209816 0)
(0.998581 0.00147187 0)
(0.999004 0.00244561 0)
(0.998168 3.17171e-05 0)
(0.998566 0.00109583 0)
(0.997835 5.28527e-05 0)
(0.997058 0.00240552 0)
(0.997555 0.00122268 0)
(0.998304 0.00290751 0)
(0.998438 0.00112901 0)
(0.997754 0.00222659 0)
(0.997284 0.00110528 0)
(0.996573 0.00194798 0)
(0.995602 0.00231512 0)
(0.994555 0.00404718 0)
(0.99393 0.0069813 0)
(0.998146 0.00914029 0)
(1.00996 -0.00470166 0)
(1.00326 -0.00185314 0)
(0.995212 -0.00655226 0)
(0.995135 0.00202316 0)
(0.998584 0.00145582 0)
(0.998971 0.00238674 0)
(0.998146 8.25908e-05 0)
(0.998566 0.00108207 0)
(0.997872 0.000129288 0)
(0.997084 0.00232484 0)
(0.997572 0.00129304 0)
(0.998295 0.00276754 0)
(0.998417 0.00128373 0)
(0.997749 0.00209825 0)
(0.997276 0.00133085 0)
(0.996625 0.00193916 0)
(0.995711 0.00258385 0)
(0.994796 0.00420427 0)
(0.994281 0.00700821 0)
(0.99815 0.00897956 0)
(1.00979 -0.00462249 0)
(1.00322 -0.00176742 0)
(0.995283 -0.00637465 0)
(0.995261 0.00193586 0)
(0.998597 0.00145197 0)
(0.998947 0.00231297 0)
(0.998131 0.000149115 0)
(0.998572 0.00105174 0)
(0.997913 0.000221875 0)
(0.997115 0.00222917 0)
(0.997589 0.00138019 0)
(0.998291 0.00261253 0)
(0.998397 0.00144169 0)
(0.997749 0.00199847 0)
(0.997275 0.00152055 0)
(0.996685 0.00197467 0)
(0.995833 0.00281536 0)
(0.995037 0.00438033 0)
(0.994629 0.00699654 0)
(0.998158 0.00881279 0)
(1.00962 -0.00453561 0)
(1.00317 -0.00169092 0)
(0.995353 -0.00617874 0)
(0.995396 0.00183488 0)
(0.998616 0.00146165 0)
(0.99893 0.00222362 0)
(0.998121 0.000231354 0)
(0.998585 0.00100585 0)
(0.997958 0.000329154 0)
(0.997153 0.00212142 0)
(0.997608 0.00147741 0)
(0.998295 0.00245843 0)
(0.998381 0.00158623 0)
(0.997753 0.00193355 0)
(0.997281 0.00167836 0)
(0.996752 0.00204787 0)
(0.995969 0.00301424 0)
(0.995277 0.00456087 0)
(0.994971 0.00696667 0)
(0.998169 0.00863986 0)
(1.00945 -0.00444062 0)
(1.00313 -0.00162483 0)
(0.995422 -0.00596287 0)
(0.995538 0.00171851 0)
(0.998639 0.00148603 0)
(0.998919 0.00211811 0)
(0.998112 0.000330022 0)
(0.998601 0.000943627 0)
(0.998003 0.00045008 0)
(0.997194 0.00200378 0)
(0.997628 0.00157956 0)
(0.998302 0.00231951 0)
(0.998369 0.00170239 0)
(0.997761 0.00190267 0)
(0.997295 0.00181519 0)
(0.996826 0.00214841 0)
(0.996118 0.00318923 0)
(0.995516 0.00473808 0)
(0.995302 0.00694238 0)
(0.998183 0.00846073 0)
(1.00927 -0.00433741 0)
(1.00308 -0.00156964 0)
(0.99549 -0.0057268 0)
(0.995687 0.0015866 0)
(0.998665 0.00152573 0)
(0.99891 0.00199461 0)
(0.998105 0.000447303 0)
(0.998621 0.000865002 0)
(0.99805 0.000580154 0)
(0.997239 0.00188325 0)
(0.997648 0.00167683 0)
(0.998312 0.00220697 0)
(0.998361 0.00178769 0)
(0.997772 0.00189935 0)
(0.997316 0.00193534 0)
(0.996907 0.00225886 0)
(0.996277 0.00333986 0)
(0.995755 0.00489728 0)
(0.99562 0.00692824 0)
(0.998199 0.00827539 0)
(1.00909 -0.00422585 0)
(1.00304 -0.00152594 0)
(0.995557 -0.0054697 0)
(0.995841 0.00143837 0)
(0.998693 0.00158168 0)
(0.998905 0.00185425 0)
(0.998098 0.000578967 0)
(0.998643 0.000777576 0)
(0.998099 0.000713602 0)
(0.997286 0.00176626 0)
(0.997672 0.00175637 0)
(0.998323 0.00212858 0)
(0.998358 0.00184761 0)
(0.997786 0.00192086 0)
(0.997343 0.00204773 0)
(0.996994 0.0023743 0)
(0.996447 0.00346649 0)
(0.995996 0.00502626 0)
(0.995924 0.00691274 0)
(0.998215 0.00808369 0)
(1.0089 -0.0041052 0)
(1.003 -0.00149515 0)
(0.995622 -0.00519 0)
(0.995999 0.00127299 0)
(0.998723 0.00165348 0)
(0.998902 0.00169953 0)
(0.998092 0.000720737 0)
(0.998667 0.000687329 0)
(0.998148 0.000843144 0)
(0.997335 0.00166573 0)
(0.997698 0.00180478 0)
(0.998335 0.00208487 0)
(0.99836 0.00188506 0)
(0.997805 0.00196152 0)
(0.997377 0.0021655 0)
(0.997086 0.00250443 0)
(0.996624 0.00357675 0)
(0.996239 0.00512486 0)
(0.996216 0.00688714 0)
(0.998232 0.00788541 0)
(1.00871 -0.00397499 0)
(1.00296 -0.00147826 0)
(0.995686 -0.00488725 0)
(0.996161 0.00109052 0)
(0.998756 0.00174102 0)
(0.998901 0.00153088 0)
(0.998088 0.000870414 0)
(0.998692 0.000598775 0)
(0.9982 0.00095966 0)
(0.997383 0.00159644 0)
(0.997729 0.00181505 0)
(0.998348 0.0020695 0)
(0.998365 0.00190892 0)
(0.99783 0.00200417 0)
(0.997417 0.00229149 0)
(0.99718 0.00265437 0)
(0.996806 0.00367591 0)
(0.996483 0.00519392 0)
(0.996497 0.00684781 0)
(0.998251 0.00768085 0)
(1.00852 -0.00383539 0)
(1.00292 -0.00147539 0)
(0.995747 -0.00456228 0)
(0.996327 0.000892872 0)
(0.99879 0.00184192 0)
(0.998904 0.00135506 0)
(0.998086 0.00101857 0)
(0.998717 0.000521823 0)
(0.998256 0.00105218 0)
(0.99743 0.00156767 0)
(0.997763 0.00179253 0)
(0.998363 0.00207269 0)
(0.998373 0.00193692 0)
(0.997863 0.00203433 0)
(0.997467 0.00241112 0)
(0.997277 0.00281895 0)
(0.99699 0.00376777 0)
(0.996728 0.00522865 0)
(0.996768 0.00678874 0)
(0.99827 0.00746935 0)
(1.00832 -0.00368467 0)
(1.00289 -0.00148811 0)
(0.995806 -0.00421506 0)
(0.996496 0.000681044 0)
(0.998827 0.00195147 0)
(0.998908 0.00118162 0)
(0.998086 0.00115611 0)
(0.998742 0.000465552 0)
(0.998317 0.00110883 0)
(0.997475 0.00157934 0)
(0.9978 0.00174791 0)
(0.998383 0.00208223 0)
(0.998382 0.00198543 0)
(0.997902 0.00205871 0)
(0.997528 0.00250749 0)
(0.997377 0.00299006 0)
(0.997171 0.00386359 0)
(0.996972 0.00522884 0)
(0.997031 0.00670053 0)
(0.998291 0.00725115 0)
(1.00812 -0.00352306 0)
(1.00286 -0.00151711 0)
(0.995864 -0.00384538 0)
(0.996668 0.000455584 0)
(0.998866 0.00206412 0)
(0.998915 0.00101703 0)
(0.998091 0.00127972 0)
(0.998765 0.000439851 0)
(0.998383 0.00112352 0)
(0.997518 0.00162363 0)
(0.997839 0.00169232 0)
(0.998409 0.00208204 0)
(0.998392 0.00205925 0)
(0.997944 0.00209928 0)
(0.997603 0.0025773 0)
(0.997482 0.00315614 0)
(0.997345 0.00397989 0)
(0.99721 0.00521329 0)
(0.997288 0.00658297 0)
(0.998314 0.00702622 0)
(1.00791 -0.00334962 0)
(1.00283 -0.00156268 0)
(0.995919 -0.00345643 0)
(0.996842 0.000224337 0)
(0.998909 0.00217508 0)
(0.998924 0.000861203 0)
(0.998101 0.00137967 0)
(0.998785 0.000453714 0)
(0.998455 0.00109368 0)
(0.997561 0.00169176 0)
(0.997877 0.00164452 0)
(0.998445 0.00206059 0)
(0.998406 0.00214961 0)
(0.997987 0.00216702 0)
(0.997688 0.00262748 0)
(0.997598 0.00329238 0)
(0.997514 0.00411265 0)
(0.997436 0.00520595 0)
(0.997536 0.00644608 0)
(0.998339 0.00679378 0)
(1.00769 -0.00316278 0)
(1.00282 -0.00162559 0)
(0.995973 -0.00305004 0)
(0.997018 -9.85294e-06 0)
(0.998956 0.00228241 0)
(0.998933 0.000724058 0)
(0.998118 0.00143652 0)
(0.998801 0.00051321 0)
(0.998534 0.00102094 0)
(0.997606 0.0017682 0)
(0.997911 0.00162144 0)
(0.998491 0.00201019 0)
(0.998428 0.00224238 0)
(0.998028 0.00225983 0)
(0.997779 0.00267274 0)
(0.997726 0.00338537 0)
(0.99768 0.00423827 0)
(0.997647 0.00522078 0)
(0.99777 0.00630896 0)
(0.998365 0.00655448 0)
(1.00748 -0.00296278 0)
(1.0028 -0.00170709 0)
(0.996024 -0.00262563 0)
(0.997195 -0.00024342 0)
(0.999009 0.00237408 0)
(0.99894 0.000624789 0)
(0.998144 0.00144897 0)
(0.998812 0.000623269 0)
(0.998616 0.000924672 0)
(0.997657 0.00183769 0)
(0.997939 0.0016396 0)
(0.998545 0.00193339 0)
(0.998461 0.00232048 0)
(0.998069 0.00237488 0)
(0.997873 0.00272282 0)
(0.997866 0.00343789 0)
(0.997849 0.00433007 0)
(0.997844 0.00525061 0)
(0.997985 0.0061893 0)
(0.998394 0.00630784 0)
(1.00725 -0.00274837 0)
(1.0028 -0.00180611 0)
(0.996073 -0.00218903 0)
(0.997371 -0.000468979 0)
(0.999068 0.00244208 0)
(0.998945 0.000565998 0)
(0.99818 0.00141293 0)
(0.998819 0.000771277 0)
(0.9987 0.000825614 0)
(0.997717 0.00188059 0)
(0.99796 0.00170656 0)
(0.998603 0.0018527 0)
(0.99851 0.00236836 0)
(0.998109 0.00251326 0)
(0.997964 0.00278957 0)
(0.998014 0.00345912 0)
(0.998026 0.00437342 0)
(0.998031 0.00527282 0)
(0.998178 0.00609295 0)
(0.998426 0.00605343 0)
(1.00702 -0.00251848 0)
(1.0028 -0.00192144 0)
(0.996121 -0.00174916 0)
(0.997545 -0.000674621 0)
(0.999136 0.00247775 0)
(0.998945 0.000552848 0)
(0.998226 0.00132219 0)
(0.998824 0.000939423 0)
(0.998782 0.000742732 0)
(0.997791 0.00187844 0)
(0.997975 0.00181092 0)
(0.998662 0.00179347 0)
(0.998577 0.00237705 0)
(0.998155 0.00266428 0)
(0.998048 0.00288694 0)
(0.998163 0.0034658 0)
(0.998212 0.00437012 0)
(0.998216 0.00526892 0)
(0.998353 0.00601547 0)
(0.99846 0.00579184 0)
(1.00678 -0.00227414 0)
(1.00282 -0.00205149 0)
(0.996169 -0.00131225 0)
(0.997714 -0.000853245 0)
(0.999215 0.00246947 0)
(0.99894 0.000594795 0)
(0.998283 0.00118691 0)
(0.99883 0.00111453 0)
(0.998858 0.000695105 0)
(0.997878 0.0018248 0)
(0.997989 0.00193502 0)
(0.998714 0.00177395 0)
(0.998661 0.00234266 0)
(0.998212 0.00279551 0)
(0.998122 0.00301417 0)
(0.998307 0.00347503 0)
(0.998404 0.00432408 0)
(0.998403 0.00522565 0)
(0.998514 0.00594126 0)
(0.998497 0.00552351 0)
(1.00654 -0.00201557 0)
(1.00284 -0.00219437 0)
(0.996217 -0.000879232 0)
(0.997876 -0.000994406 0)
(0.999307 0.00240895 0)
(0.998928 0.000693445 0)
(0.998348 0.00102051 0)
(0.998842 0.00127791 0)
(0.998924 0.0006969 0)
(0.99798 0.00172323 0)
(0.998009 0.00205487 0)
(0.998756 0.00180451 0)
(0.998759 0.00228128 0)
(0.998288 0.00287809 0)
(0.998191 0.00316093 0)
(0.998437 0.00351004 0)
(0.998597 0.00424848 0)
(0.998599 0.00513708 0)
(0.998671 0.00585208 0)
(0.998537 0.0052466 0)
(1.00628 -0.00173936 0)
(1.00287 -0.0023507 0)
(0.996269 -0.000457116 0)
(0.998026 -0.00109151 0)
(0.999412 0.00229007 0)
(0.998911 0.000841897 0)
(0.998419 0.000839837 0)
(0.998865 0.00140631 0)
(0.998977 0.000760656 0)
(0.998093 0.00158986 0)
(0.998041 0.00214534 0)
(0.998787 0.00188677 0)
(0.998861 0.00222473 0)
(0.998386 0.00290384 0)
(0.998262 0.00330043 0)
(0.998548 0.00358529 0)
(0.99878 0.00417049 0)
(0.998802 0.00500438 0)
(0.998833 0.0057294 0)
(0.99858 0.00496457 0)
(1.00602 -0.00145298 0)
(1.00291 -0.00250963 0)
(0.996325 -6.17846e-05 0)
(0.998162 -0.0011368 0)
(0.999534 0.00211661 0)
(0.998889 0.00103152 0)
(0.99849 0.000671145 0)
(0.998903 0.0014801 0)
(0.999017 0.000889622 0)
(0.99821 0.00145666 0)
(0.998091 0.00218909 0)
(0.998809 0.00201361 0)
(0.99896 0.00219962 0)
(0.998505 0.00288092 0)
(0.998345 0.00339706 0)
(0.998642 0.00369099 0)
(0.998942 0.00412451 0)
(0.999005 0.00484536 0)
(0.999006 0.00556524 0)
(0.998627 0.00467585 0)
(1.00575 -0.00115401 0)
(1.00295 -0.00266973 0)
(0.996388 0.000303974 0)
(0.998281 -0.00112437 0)
(0.999671 0.00188474 0)
(0.998866 0.0012466 0)
(0.998557 0.000537548 0)
(0.99896 0.00149126 0)
(0.999046 0.0010642 0)
(0.998324 0.00135016 0)
(0.998164 0.00217441 0)
(0.998829 0.00216022 0)
(0.999047 0.00221944 0)
(0.998637 0.0028301 0)
(0.998448 0.00343439 0)
(0.998729 0.0037931 0)
(0.999077 0.00412815 0)
(0.999195 0.00469156 0)
(0.99919 0.00536355 0)
(0.998677 0.00438095 0)
(1.00548 -0.000843838 0)
(1.003 -0.0028266 0)
(0.996461 0.000625512 0)
(0.998377 -0.0010536 0)
(0.999825 0.00160337 0)
(0.998847 0.00146808 0)
(0.998614 0.000451112 0)
(0.999038 0.00143255 0)
(0.99907 0.00125532 0)
(0.998427 0.00128925 0)
(0.998258 0.00210099 0)
(0.998856 0.00229436 0)
(0.999118 0.00228773 0)
(0.998772 0.00277517 0)
(0.998572 0.00341679 0)
(0.998822 0.00385533 0)
(0.999188 0.00416785 0)
(0.999361 0.00457717 0)
(0.999375 0.00514534 0)
(0.998731 0.00408355 0)
(1.00519 -0.000530753 0)
(1.00306 -0.0029696 0)
(0.996547 0.000891136 0)
(0.99845 -0.000911775 0)
(0.999993 0.00128733 0)
(0.998837 0.00167538 0)
(0.998654 0.00042806 0)
(0.999136 0.00130859 0)
(0.999098 0.00144044 0)
(0.998512 0.00129366 0)
(0.99837 0.00198473 0)
(0.998901 0.00238651 0)
(0.999175 0.00240327 0)
(0.9989 0.00274289 0)
(0.998712 0.0033557 0)
(0.998931 0.00386387 0)
(0.999286 0.00421071 0)
(0.999493 0.00451892 0)
(0.999546 0.00494665 0)
(0.998788 0.00378196 0)
(1.00489 -0.000214399 0)
(1.00311 -0.00309308 0)
(0.996649 0.00109714 0)
(0.998497 -0.000699282 0)
(1.00017 0.000950583 0)
(0.998843 0.0018444 0)
(0.998673 0.000477509 0)
(0.99925 0.00113883 0)
(0.999138 0.00159498 0)
(0.998576 0.00137224 0)
(0.99849 0.00185676 0)
(0.998972 0.00241243 0)
(0.999225 0.00254081 0)
(0.999009 0.0027529 0)
(0.998859 0.00326619 0)
(0.999059 0.00381535 0)
(0.999386 0.00422319 0)
(0.999598 0.00449957 0)
(0.999688 0.0047947 0)
(0.998848 0.00347978 0)
(1.00459 9.92067e-05 0)
(1.00316 -0.00319234 0)
(0.996771 0.00124003 0)
(0.998518 -0.000430284 0)
(1.00035 0.000615741 0)
(0.998871 0.00195965 0)
(0.998669 0.000602575 0)
(0.999372 0.0009494 0)
(0.999202 0.00169321 0)
(0.99862 0.00151822 0)
(0.998604 0.00175657 0)
(0.999071 0.00237267 0)
(0.999281 0.00266847 0)
(0.999095 0.00281572 0)
(0.998998 0.00318192 0)
(0.999206 0.0037167 0)
(0.9995 0.00419143 0)
(0.999688 0.00449195 0)
(0.999795 0.00469932 0)
(0.998912 0.00317863 0)
(1.00428 0.000404649 0)
(1.00321 -0.00325819 0)
(0.996915 0.00131374 0)
(0.998513 -0.000114567 0)
(1.00053 0.00030336 0)
(0.998929 0.00200502 0)
(0.998644 0.000796458 0)
(0.999494 0.000772492 0)
(0.999295 0.00171733 0)
(0.998651 0.00170265 0)
(0.998701 0.00170675 0)
(0.999195 0.00227339 0)
(0.999355 0.0027496 0)
(0.999161 0.00292053 0)
(0.999116 0.00313578 0)
(0.999362 0.00358208 0)
(0.999637 0.00410527 0)
(0.999779 0.0044693 0)
(0.999872 0.00464757 0)
(0.998978 0.00287912 0)
(1.00396 0.000696833 0)
(1.00324 -0.00327924 0)
(0.997083 0.00131441 0)
(0.998486 0.000237234 0)
(1.0007 3.80979e-05 0)
(0.999019 0.00197234 0)
(0.998601 0.00103777 0)
(0.999602 0.000635406 0)
(0.999422 0.00166261 0)
(0.998681 0.00189279 0)
(0.99877 0.00172276 0)
(0.999332 0.00214024 0)
(0.999461 0.00276053 0)
(0.99922 0.00303744 0)
(0.999202 0.00314497 0)
(0.999511 0.003442 0)
(0.999799 0.0039608 0)
(0.999888 0.00440737 0)
(0.999933 0.00461385 0)
(0.999046 0.00258786 0)
(1.00364 0.000963051 0)
(1.00327 -0.00325034 0)
(0.997277 0.00125246 0)
(0.998441 0.000602552 0)
(1.00085 -0.000165285 0)
(0.999145 0.00186614 0)
(0.998549 0.00130041 0)
(0.999686 0.00055572 0)
(0.999579 0.00153466 0)
(0.998722 0.00205922 0)
(0.998806 0.00181266 0)
(0.999467 0.0020153 0)
(0.999602 0.00270132 0)
(0.999288 0.0031318 0)
(0.999255 0.00320748 0)
(0.999634 0.00333737 0)
(0.999976 0.00377481 0)
(1.00003 0.00429042 0)
(0.999997 0.00457055 0)
(0.999117 0.0023029 0)
(1.00331 0.00120761 0)
(1.00327 -0.00317662 0)
(0.997497 0.00112974 0)
(0.998385 0.000966514 0)
(1.00096 -0.000311715 0)
(0.999306 0.00168433 0)
(0.998497 0.00156171 0)
(0.999737 0.000554585 0)
(0.999761 0.0013581 0)
(0.998792 0.00217207 0)
(0.998814 0.00196259 0)
(0.999583 0.00192658 0)
(0.999774 0.00257671 0)
(0.999383 0.00316912 0)
(0.999286 0.00329744 0)
(0.999715 0.00329277 0)
(1.00015 0.00358003 0)
(1.0002 0.00411431 0)
(1.00009 0.0044903 0)
(0.999188 0.00202827 0)
(1.00299 0.00142334 0)
(1.00325 -0.00305611 0)
(0.997741 0.000955752 0)
(0.998321 0.00131139 0)
(1.00105 -0.000382792 0)
(0.9995 0.00143985 0)
(0.998458 0.00179194 0)
(0.999747 0.000634035 0)
(0.999955 0.00116162 0)
(0.9989 0.00220873 0)
(0.998803 0.0021478 0)
(0.999663 0.00189997 0)
(0.999963 0.00241453 0)
(0.999517 0.00313717 0)
(0.999314 0.00338268 0)
(0.999749 0.00331169 0)
(1.0003 0.00341945 0)
(1.0004 0.00389585 0)
(1.00022 0.0043558 0)
(0.999261 0.00176915 0)
(1.00267 0.00159773 0)
(1.0032 -0.00287932 0)
(0.998006 0.000745533 0)
(0.99826 0.00161509 0)
(1.00109 -0.000359721 0)
(0.999721 0.00116281 0)
(0.998444 0.00196505 0)
(0.999717 0.000788177 0)
(1.00015 0.000981544 0)
(0.999054 0.00216383 0)
(0.99879 0.00233388 0)
(0.999697 0.00194504 0)
(1.00015 0.00225044 0)
(0.999695 0.00303664 0)
(0.999361 0.00343089 0)
(0.999746 0.00337204 0)
(1.00039 0.00332166 0)
(1.00061 0.00366825 0)
(1.00039 0.0041656 0)
(0.999333 0.00152417 0)
(1.00236 0.00173461 0)
(1.00312 -0.00265499 0)
(0.998288 0.000516907 0)
(0.99821 0.00186073 0)
(1.00108 -0.00025688 0)
(0.999956 0.000878362 0)
(0.998467 0.00206583 0)
(0.99965 0.00100319 0)
(1.00032 0.000848771 0)
(0.999252 0.00204321 0)
(0.998793 0.002483 0)
(0.999685 0.00205404 0)
(1.00032 0.0021173 0)
(0.99991 0.00287782 0)
(0.999444 0.00342227 0)
(0.999724 0.00344086 0)
(1.00043 0.00329018 0)
(1.00079 0.00346918 0)
(1.00061 0.00393657 0)
(0.999404 0.00129987 0)
(1.00206 0.00182503 0)
(1.00302 -0.00238973 0)
(0.99858 0.000280575 0)
(0.998179 0.00203775 0)
(1.00103 -8.41456e-05 0)
(1.00019 0.000614851 0)
(0.998534 0.00208503 0)
(0.999558 0.00124894 0)
(1.00045 0.000780451 0)
(0.999487 0.00186644 0)
(0.998832 0.00256763 0)
(0.999637 0.00220858 0)
(1.00044 0.00204276 0)
(1.00015 0.00268405 0)
(0.999576 0.00334871 0)
(0.999706 0.00348805 0)
(1.00042 0.00330752 0)
(1.00092 0.00332478 0)
(1.00083 0.00369921 0)
(0.999474 0.00109451 0)
(1.00177 0.00187616 0)
(1.00289 -0.00208832 0)
(0.998875 5.33032e-05 0)
(0.998173 0.00214213 0)
(1.00093 0.000142132 0)
(1.00042 0.000393477 0)
(0.99865 0.00202395 0)
(0.999454 0.00149628 0)
(1.00053 0.000786475 0)
(0.999742 0.00166695 0)
(0.998919 0.00257448 0)
(0.99957 0.00237621 0)
(1.0005 0.00203827 0)
(1.00038 0.00248903 0)
(0.999758 0.00321229 0)
(0.999716 0.00349288 0)
(1.00037 0.00334712 0)
(1.00099 0.00324164 0)
(1.00103 0.00348626 0)
(0.99954 0.000909965 0)
(1.0015 0.00188974 0)
(1.00273 -0.00176485 0)
(0.999165 -0.000142786 0)
(0.998199 0.0021712 0)
(1.0008 0.0004038 0)
(1.00062 0.00023011 0)
(0.998811 0.00189301 0)
(0.999355 0.00171691 0)
(1.00056 0.000864882 0)
(0.999999 0.00147825 0)
(0.999061 0.00250452 0)
(0.999505 0.00252129 0)
(1.00051 0.00209813 0)
(1.0006 0.00232743 0)
(0.999982 0.00302926 0)
(0.999771 0.00344329 0)
(1.00031 0.0033833 0)
(1.001 0.00320937 0)
(1.0012 0.00331916 0)
(0.999604 0.000749082 0)
(1.00126 0.00186087 0)
(1.00255 -0.00143271 0)
(0.999442 -0.000307071 0)
(0.998259 0.00212709 0)
(1.00065 0.000677203 0)
(1.00079 0.00013625 0)
(0.999013 0.0017131 0)
(0.999277 0.00188774 0)
(1.00054 0.00100383 0)
(1.00024 0.00132716 0)
(0.999254 0.00237124 0)
(0.999466 0.00261544 0)
(1.00047 0.00220205 0)
(1.00076 0.00222116 0)
(1.00023 0.00282543 0)
(0.999879 0.00333463 0)
(1.00026 0.00339246 0)
(1.00096 0.00320706 0)
(1.0013 0.00320224 0)
(0.999663 0.000609799 0)
(1.00103 0.00179831 0)
(1.00235 -0.00110308 0)
(0.999698 -0.00043207 0)
(0.998354 0.00202171 0)
(1.00049 0.000937112 0)
(1.00091 0.00011386 0)
(0.999245 0.00150767 0)
(0.999234 0.00199169 0)
(1.00048 0.00118001 0)
(1.00044 0.00123053 0)
(0.999485 0.00219839 0)
(0.999469 0.0026436 0)
(1.00039 0.00232041 0)
(1.00087 0.00217652 0)
(1.00048 0.00263146 0)
(1.00004 0.00317655 0)
(1.00025 0.00335787 0)
(1.0009 0.00321242 0)
(1.00135 0.00312893 0)
(0.999718 0.000492325 0)
(1.00083 0.0017067 0)
(1.00213 -0.000784864 0)
(0.999926 -0.000506615 0)
(0.998483 0.0018695 0)
(1.00032 0.00116737 0)
(1.00098 0.000160298 0)
(0.999491 0.00130171 0)
(0.999235 0.00202374 0)
(1.00039 0.00136636 0)
(1.00059 0.00119461 0)
(0.999736 0.00201416 0)
(0.999524 0.00260466 0)
(1.00031 0.00242296 0)
(1.00092 0.00218464 0)
(1.0007 0.00247235 0)
(1.00024 0.00299084 0)
(1.00028 0.00327359 0)
(1.00083 0.00320511 0)
(1.00134 0.00308595 0)
(0.999768 0.00039577 0)
(1.00066 0.00159176 0)
(1.00191 -0.000489922 0)
(1.00012 -0.000527222 0)
(0.99864 0.00168779 0)
(1.00016 0.00135192 0)
(1.001 0.000264117 0)
(0.999737 0.00111782 0)
(0.999283 0.00199052 0)
(1.00029 0.00153861 0)
(1.00069 0.00121608 0)
(0.999987 0.00184479 0)
(0.999632 0.00250956 0)
(1.00024 0.00248863 0)
(1.00091 0.00222614 0)
(1.00087 0.00235978 0)
(1.00046 0.0028024 0)
(1.00036 0.00314508 0)
(1.00078 0.00316867 0)
(1.0013 0.00305519 0)
(0.999812 0.000318118 0)
(1.00052 0.00146125 0)
(1.00168 -0.000225882 0)
(1.00028 -0.000503687 0)
(0.998819 0.00149136 0)
(1.00003 0.00148131 0)
(1.00098 0.000407947 0)
(0.999967 0.000971932 0)
(0.999376 0.00190499 0)
(1.0002 0.00167622 0)
(1.00073 0.00128181 0)
(1.00022 0.00170825 0)
(0.999782 0.00237543 0)
(1.0002 0.00250581 0)
(1.00087 0.00227702 0)
(1.00099 0.00229162 0)
(1.00067 0.00263139 0)
(1.00049 0.00298729 0)
(1.00077 0.00309544 0)
(1.00125 0.00301913 0)
(0.99985 0.000257084 0)
(1.0004 0.0013232 0)
(1.00146 -1.58824e-06 0)
(1.0004 -0.000443291 0)
(0.999012 0.00129578 0)
(0.999924 0.00155322 0)
(1.00092 0.00057116 0)
(1.00017 0.00087202 0)
(0.999506 0.00178459 0)
(1.00012 0.00176615 0)
(1.00073 0.00137237 0)
(1.00042 0.00161345 0)
(0.999962 0.00222324 0)
(1.0002 0.00247285 0)
(1.00082 0.00231718 0)
(1.00107 0.00225728 0)
(1.00085 0.00248974 0)
(1.00065 0.00281913 0)
(1.0008 0.00298795 0)
(1.0012 0.00296487 0)
(0.999883 0.00021051 0)
(1.0003 0.00118389 0)
(1.00125 0.000184487 0)
(1.00048 -0.000347519 0)
(0.999209 0.00111497 0)
(0.999851 0.00157059 0)
(1.00083 0.000734796 0)
(1.00034 0.000819737 0)
(0.999661 0.00164935 0)
(1.00008 0.0018056 0)
(1.0007 0.00146812 0)
(1.00057 0.00156107 0)
(1.00015 0.00207398 0)
(1.00025 0.00239733 0)
(1.00077 0.00233286 0)
(1.0011 0.00224223 0)
(1.001 0.00238014 0)
(1.00081 0.00265699 0)
(1.00086 0.00285592 0)
(1.00118 0.00288628 0)
(0.99991 0.00017634 0)
(1.00022 0.00104738 0)
(1.00106 0.000335858 0)
(1.00054 -0.000229675 0)
(0.999401 0.000957965 0)
(0.999812 0.00154272 0)
(1.00074 0.000884329 0)
(1.00046 0.000810745 0)
(0.999828 0.00151642 0)
(1.00007 0.0017984 0)
(1.00066 0.00155144 0)
(1.00068 0.00154334 0)
(1.00034 0.00194217 0)
(1.00033 0.00229215 0)
(1.00074 0.00231651 0)
(1.0011 0.00223145 0)
(1.00111 0.00229792 0)
(1.00096 0.00251126 0)
(1.00096 0.00271204 0)
(1.00118 0.00278452 0)
(0.999933 0.000151594 0)
(1.00016 0.000919338 0)
(1.00088 0.000447999 0)
(1.00056 -0.000104165 0)
(0.999581 0.000829938 0)
(0.999806 0.0014804 0)
(1.00064 0.00100774 0)
(1.00055 0.000834992 0)
(0.999995 0.00139801 0)
(1.0001 0.00175357 0)
(1.00062 0.00161045 0)
(1.00075 0.0015481 0)
(1.0005 0.00183532 0)
(1.00043 0.00217259 0)
(1.00074 0.00226819 0)
(1.00108 0.0022128 0)
(1.00118 0.00223455 0)
(1.00109 0.00238613 0)
(1.00106 0.00256796 0)
(1.00121 0.00266582 0)
(0.999951 0.00013426 0)
(1.00012 0.000802192 0)
(1.00073 0.000525793 0)
(1.00056 2.54906e-05 0)
(0.999744 0.000733848 0)
(0.999828 0.00139551 0)
(1.00055 0.0010983 0)
(1.0006 0.000880386 0)
(1.00015 0.00130163 0)
(1.00015 0.00168319 0)
(1.00058 0.00163964 0)
(1.00079 0.00156191 0)
(1.00064 0.00175389 0)
(1.00055 0.00205201 0)
(1.00076 0.00219367 0)
(1.00107 0.00217847 0)
(1.00122 0.00218006 0)
(1.0012 0.00228026 0)
(1.00117 0.00243157 0)
(1.00127 0.00253818 0)
(0.999964 0.000122642 0)
(1.00009 0.000697829 0)
(1.00059 0.000573304 0)
(1.00054 0.000150851 0)
(0.999884 0.000668223 0)
(0.999871 0.00129959 0)
(1.00047 0.00115455 0)
(1.00062 0.000934687 0)
(1.00029 0.00122962 0)
(1.00023 0.00159934 0)
(1.00057 0.00163877 0)
(1.00081 0.00157324 0)
(1.00075 0.00169317 0)
(1.00067 0.00193928 0)
(1.0008 0.00210158 0)
(1.00107 0.00212551 0)
(1.00125 0.00212555 0)
(1.00128 0.00218883 0)
(1.00127 0.00230651 0)
(1.00133 0.00240888 0)