/*--------------------------------*- C++ -*----------------------------------*\
| =========                 |                                                 |
| \\      /  F ield         | OpenFOAM: The Open Source CFD Toolbox           |
|  \\    /   O peration     | Version:  v2012                                 |
|   \\  /    A nd           | Website:  www.openfoam.com                      |
|    \\/     M anipulation  |                                                 |
\*---------------------------------------------------------------------------*/
FoamFile
{
    version     2.0;
    format      ascii;
    class       volScalarField;
    location    "0.5";
    object      p;
}
// * * * * * * * * * * * * * * * * * * * * * * * * * * * * * * * * * * * * * //

dimensions      [0 2 -2 0 0 0 0];


internalField   nonuniform List<scalar> 
17600
(
2.46474e-11
0.000682006
0.000660908
0.000796277
0.000819282
0.00079147
0.000871502
0.000835912
0.000941817
0.000898795
0.00106271
0.000669807
0.000806414
0.000217805
0.0005907
0.000405874
0.0012532
0.00218921
0.00406818
0.0075752
9.73619e-07
0.000680503
0.000662198
0.000792324
0.000820188
0.000790117
0.000872479
0.000834645
0.000943224
0.000896711
0.00106455
0.000665151
0.000809033
0.00020814
0.000595232
0.00038678
0.00126282
0.00214344
0.00408654
0.00730639
2.29488e-06
0.00067837
0.000663889
0.00078967
0.000821564
0.000788063
0.000873944
0.000832583
0.000945058
0.000893045
0.00106651
0.000657182
0.000810978
0.000193067
0.000599142
0.000360297
0.00127327
0.00208602
0.00409115
0.00688514
3.79123e-06
0.000676222
0.000665597
0.000786803
0.000822678
0.000785927
0.000875245
0.00083028
0.000946621
0.000888606
0.00106778
0.000647762
0.000811172
0.00017677
0.000600028
0.000335837
0.001278
0.00203518
0.00406211
0.00647586
5.72131e-06
0.000674002
0.000667291
0.000783529
0.000823527
0.00078371
0.000876382
0.000827791
0.000948114
0.000883621
0.00106907
0.00063737
0.000811368
0.000159658
0.000600912
0.000312532
0.00127905
0.00198768
0.00399731
0.00609573
8.19003e-06
0.000671555
0.000668958
0.000779811
0.000824231
0.000781367
0.000877509
0.000825165
0.000949769
0.000878369
0.00107076
0.000626528
0.000812102
0.000142099
0.000602344
0.000289128
0.00127671
0.00193968
0.00389797
0.00574354
1.11134e-05
0.000668799
0.000670589
0.000775708
0.000824892
0.000778923
0.000878744
0.000822455
0.000951665
0.000873076
0.00107279
0.000615677
0.000812813
0.000124677
0.000602539
0.000266431
0.00126824
0.00189021
0.00376703
0.00541261
1.43542e-05
0.000665718
0.000672217
0.000771302
0.0008256
0.000776397
0.000880131
0.000819659
0.000953786
0.00086782
0.00107502
0.000604971
0.000812935
0.000107707
0.000599885
0.000245845
0.00125012
0.00184007
0.00360737
0.00509457
1.78104e-05
0.000662335
0.000673898
0.00076665
0.00082641
0.000773762
0.000881662
0.000816743
0.000956093
0.000862618
0.0010773
0.000594492
0.000812091
9.14579e-05
0.000593505
0.000228093
0.00122014
0.00179014
0.00342111
0.00478161
2.1433e-05
0.000658675
0.000675675
0.000761772
0.000827338
0.000770979
0.000883319
0.000813678
0.000958547
0.000857498
0.00107951
0.000584396
0.000809899
7.64266e-05
0.000582587
0.000213437
0.00117726
0.00174017
0.00321111
0.00446723
2.52109e-05
0.000654751
0.000677573
0.000756664
0.000828383
0.000768016
0.000885087
0.000810461
0.00096112
0.000852525
0.00108154
0.000574916
0.000805916
6.32496e-05
0.00056612
0.000202158
0.00112074
0.00168778
0.00298211
0.00414674
2.91529e-05
0.000650555
0.000679604
0.000751317
0.000829541
0.000764854
0.000886948
0.000807111
0.000963779
0.00084781
0.00108327
0.000566377
0.000799599
5.25624e-05
0.000543141
0.00019435
0.00105023
0.00162949
0.00274018
0.0038173
3.32767e-05
0.000646066
0.000681775
0.00074572
0.00083081
0.00076149
0.000888881
0.00080367
0.000966474
0.000843521
0.00108444
0.000559232
0.000790321
4.48565e-05
0.000513097
0.000189402
0.000966265
0.0015611
0.00249109
0.0034775
3.76041e-05
0.000641252
0.000684092
0.000739866
0.000832185
0.00075793
0.000890854
0.000800202
0.000969121
0.000839889
0.00108478
0.00055394
0.000777592
4.02721e-05
0.000475868
0.000186185
0.000870362
0.00147849
0.00223902
0.00312732
4.21598e-05
0.000636075
0.000686561
0.000733755
0.000833655
0.000754191
0.00089282
0.000796808
0.000971583
0.000837215
0.00108396
0.000550852
0.000761126
3.87263e-05
0.000431424
0.000182224
0.000765031
0.00137843
0.00198642
0.00276825
4.69717e-05
0.000630488
0.000689184
0.000727388
0.000835202
0.000750305
0.000894705
0.000793634
0.000973662
0.000835849
0.0010817
0.000550286
0.000740641
4.00515e-05
0.000379979
0.000174244
0.000653056
0.00125905
0.00173442
0.00240286
5.20717e-05
0.000624443
0.00069196
0.000720777
0.000836796
0.000746322
0.0008964
0.000790886
0.000975115
0.000836149
0.00107771
0.000552519
0.000716026
4.35091e-05
0.000322624
0.000159322
0.000536169
0.00111948
0.00148277
0.00203395
5.74951e-05
0.000617883
0.000694883
0.000713945
0.000838391
0.00074233
0.000897742
0.000788821
0.000975692
0.000838435
0.00107179
0.000557581
0.000687591
4.7676e-05
0.000260973
0.000135217
0.000414962
0.00095988
0.00122997
0.00166419
6.32798e-05
0.000610756
0.000697935
0.000706935
0.000839911
0.000738449
0.000898536
0.000787712
0.000975169
0.000842962
0.00106388
0.000565213
0.000656015
5.08594e-05
0.000196506
0.000100254
0.00028945
0.000781359
0.000974124
0.00129615
6.94632e-05
0.000603008
0.000701084
0.000699816
0.000841253
0.000734844
0.000898568
0.000787826
0.000973355
0.000849886
0.00105409
0.000574937
0.000622201
5.13945e-05
0.0001304
5.33858e-05
0.00015904
0.000585424
0.000713388
0.00093173
7.60808e-05
0.000594596
0.000704279
0.000692683
0.000842263
0.000731729
0.000897596
0.000789416
0.000970142
0.000859211
0.00104275
0.000585984
0.000587246
4.77767e-05
6.32475e-05
-5.70099e-06
2.28486e-05
0.000373683
0.000446214
0.000571699
8.31622e-05
0.000585494
0.00070744
0.00068567
0.000842746
0.000729339
0.000895386
0.000792648
0.000965525
0.000870785
0.00103043
0.000597243
0.000552468
3.91341e-05
-5.35067e-06
-7.68596e-05
-0.000119952
0.000147745
0.000171526
0.000215974
9.07224e-05
0.00057571
0.000710448
0.000678943
0.000842499
0.000727891
0.000891771
0.000797568
0.000959651
0.000884184
0.00101808
0.000607566
0.000518924
2.50559e-05
-7.66271e-05
-0.000160036
-0.000270235
-9.08037e-05
-0.00011122
-0.00013583
9.87647e-05
0.00056529
0.000713141
0.000672694
0.000841326
0.00072757
0.000886618
0.000804098
0.000952904
0.000898673
0.00100695
0.000616152
0.000486973
5.54483e-06
-0.000151943
-0.000255515
-0.00042869
-0.000340483
-0.000402326
-0.000484148
0.000107269
0.000554335
0.000715314
0.000667116
0.000839045
0.000728484
0.000879921
0.000811972
0.000945934
0.000913457
0.000998014
0.000622629
0.000456165
-1.90462e-05
-0.000232194
-0.000363654
-0.00059575
-0.00059991
-0.00070207
-0.00082948
0.000116167
0.000543023
0.000716765
0.000662364
0.000835505
0.00073062
0.000871894
0.0008207
0.000939571
0.000927956
0.000991738
0.000626887
0.000425395
-4.85602e-05
-0.00031774
-0.000484563
-0.000771712
-0.000867705
-0.00101063
-0.00117251
0.000125355
0.00053157
0.000717324
0.000658547
0.000830636
0.000733818
0.000862925
0.00082973
0.000934563
0.00094183
0.000988393
0.000629138
0.00039327
-8.34555e-05
-0.000408761
-0.000617985
-0.000956781
-0.00114251
-0.00132796
-0.00151426
0.000134696
0.000520236
0.000716833
0.000655689
0.000824532
0.000737718
0.000853474
0.000838665
0.000931332
0.000954802
0.000987774
0.000629764
0.000358533
-0.000124545
-0.000505291
-0.000763291
-0.00115101
-0.00142308
-0.0016537
-0.00185606
0.000144
0.000509322
0.000715205
0.000653686
0.000817472
0.000741828
0.000843862
0.00084721
0.000930095
0.000966797
0.000989253
0.000629005
0.00032032
-0.000172732
-0.000607285
-0.000919438
-0.00135413
-0.00170818
-0.00198695
-0.00219932
0.000153053
0.000499084
0.000712489
0.000652298
0.000809833
0.000745716
0.000834271
0.000855108
0.000930871
0.000977864
0.000991944
0.000626821
0.000278059
-0.00022911
-0.000714784
-0.00108485
-0.00156523
-0.00199616
-0.00232595
-0.00254513
0.000161635
0.000489717
0.000708906
0.000651126
0.000801977
0.000749169
0.000824822
0.000862334
0.000933462
0.000987886
0.000994898
0.000623039
0.000231381
-0.000294991
-0.000828178
-0.00125758
-0.00178263
-0.00228462
-0.00266784
-0.00289362
0.000169562
0.000481309
0.000704841
0.000649725
0.000794085
0.000751974
0.00081529
0.000868939
0.000937697
0.000996582
0.000997169
0.000617212
0.000180182
-0.000371218
-0.00094821
-0.00143592
-0.00200437
-0.00257078
-0.00300861
-0.00324326
0.000176696
0.000473733
0.00070088
0.000647846
0.000786009
0.000754165
0.000805225
0.000874737
0.000943591
0.0010035
0.000997801
0.000608647
0.000124563
-0.000457507
-0.00107571
-0.00161899
-0.00222889
-0.00285225
-0.00334363
-0.00359063
0.000182949
0.000466672
0.000697684
0.000645448
0.000777283
0.000755071
0.00079443
0.000879099
0.000951288
0.00100826
0.000995007
0.000596554
6.4921e-05
-0.000552573
-0.00121089
-0.00180691
-0.00245562
-0.00312759
-0.00366853
-0.00393085
0.000188344
0.000459591
0.000695778
0.000642906
0.00076718
0.000758738
0.000782918
0.000880967
0.000960585
0.00101099
0.000986584
0.000579696
2.03123e-06
-0.000654431
-0.00135267
-0.00199999
-0.00268509
-0.00339658
-0.00398016
-0.00425874
0.000193041
0.000451754
0.000695438
0.000641244
0.000754723
0.000763182
0.000771089
0.000878504
0.000971151
0.00101264
0.000971292
0.000556166
-6.35985e-05
-0.000760718
-0.00149875
-0.0021973
-0.00291775
-0.00365997
-0.00427705
-0.00456988
0.000197311
0.000442416
0.000696547
0.000641959
0.000739291
0.00076769
0.000760672
0.000869793
0.000980534
0.00101436
0.000948818
0.000523383
-0.000132785
-0.000869417
-0.00164605
-0.00239545
-0.00315263
-0.00391903
-0.00455952
-0.00486165
0.000201547
0.000430922
0.000698274
0.000646754
0.000720832
0.00077056
0.000753259
0.000854765
0.000984987
0.00101672
0.000921066
0.000480217
-0.000207496
-0.000979833
-0.00179148
-0.00258916
-0.00338633
-0.00417466
-0.0048295
-0.00513391
0.000206199
0.000416912
0.000698966
0.000657181
0.000700472
0.000769658
0.000749182
0.000833952
0.000980771
0.00101822
0.00089167
0.000427817
-0.000289457
-0.0010928
-0.00193317
-0.0027735
-0.00361293
-0.00442581
-0.00508965
-0.00538891
0.000211517
0.000400596
0.000696353
0.00067391
0.000680507
0.000762529
0.00075086
0.000809612
0.000965028
0.00101569
0.000862677
0.000368477
-0.00037942
-0.00121004
-0.00207145
-0.00294531
-0.00382517
-0.00466728
-0.00534062
-0.00562987
0.00021746
0.00038262
0.000688652
0.000697299
0.000663758
0.000746595
0.000749304
0.000785155
0.000937211
0.00100351
0.000833714
0.000306335
-0.000476034
-0.00133321
-0.00220894
-0.00310417
-0.00401717
-0.00489036
-0.00557805
-0.00585803
0.000224004
0.000363755
0.00067394
0.000724815
0.000656209
0.000721212
0.00074264
0.000762874
0.000898887
0.000977616
0.000802037
0.000245813
-0.000575855
-0.00146292
-0.00234844
-0.00325287
-0.0041868
-0.00508714
-0.00579344
-0.00607021
0.000230878
0.000345697
0.000650748
0.000753147
0.000661277
0.00068867
0.000726079
0.000741478
0.000853973
0.000937036
0.000763946
0.000188708
-0.000673712
-0.00159688
-0.00249195
-0.00339498
-0.00433529
-0.00525318
-0.00597793
-0.00625885
0.000237221
0.000330154
0.000619854
0.000776769
0.00067946
0.000654618
0.000695544
0.000717737
0.000805631
0.000882301
0.000716079
0.000133425
-0.000764342
-0.00172911
-0.0026398
-0.00353385
-0.0044655
-0.00538724
-0.00612508
-0.00641496
0.000242518
0.000317579
0.000582512
0.000791388
0.000710812
0.000624121
0.000649406
0.000684696
0.000755159
0.000815491
0.000655713
7.72536e-05
-0.000844965
-0.00185282
-0.00278875
-0.00367261
-0.00458162
-0.00549072
-0.00623149
-0.00653082
0.000246287
0.000308345
0.00054087
0.000793029
0.000750569
0.000606211
0.000588883
0.000634751
0.000700927
0.000740956
0.000581375
1.69493e-05
-0.000915281
-0.00196158
-0.00293061
-0.00381203
-0.00468918
-0.00556778
-0.00629673
-0.00660093
0.000247711
0.00030229
0.000498577
0.000778906
0.000792238
0.00060506
0.000522187
0.000565012
0.00063762
0.000662307
0.000494651
-5.15991e-05
-0.000977386
-0.00205058
-0.00305549
-0.00394691
-0.00479297
-0.00562574
-0.00632408
-0.0066229
0.000246564
0.000299088
0.000458933
0.000748647
0.000827557
0.000620604
0.000458295
0.000475523
0.000559314
0.000579519
0.000400055
-0.000131594
-0.0010366
-0.00211822
-0.00315445
-0.00406528
-0.00489246
-0.00567345
-0.00632193
-0.00659919
0.000242691
0.000297975
0.000424114
0.00070302
0.000848873
0.000650623
0.000403625
0.000368831
0.000462063
0.000490351
0.000301804
-0.000222718
-0.0010993
-0.00216809
-0.00322104
-0.00415399
-0.00497776
-0.00571539
-0.00630283
-0.00653918
0.000235056
0.000297665
0.000396257
0.000644879
0.000849596
0.000688524
0.000364823
0.000250907
0.000342655
0.000392338
0.000202346
-0.000321402
-0.00117025
-0.00220843
-0.00325418
-0.00420183
-0.00503222
-0.00574558
-0.00627697
-0.00645924
0.000225478
0.000296781
0.000374869
0.000578994
0.000827138
0.000724332
0.000344134
0.000131764
0.000199981
0.000281275
0.000103417
-0.000423526
-0.0012507
-0.00224743
-0.00326078
-0.00420231
-0.00504032
-0.00574745
-0.00624375
-0.00637498
0.000213614
0.000293891
0.000358936
0.000509757
0.000781002
0.000749991
0.000339324
2.0382e-05
3.85295e-05
0.000151002
5.58772e-06
-0.000522933
-0.0013398
-0.00229218
-0.00325227
-0.004158
-0.00499045
-0.00570148
-0.00618875
-0.00629038
0.00019977
0.000287258
0.000347914
0.000441904
0.000711257
0.000758622
0.000348263
-7.92428e-05
-0.000135546
-1.54559e-06
-9.49924e-05
-0.000612157
-0.00143262
-0.00234808
-0.00324033
-0.00408142
-0.00487947
-0.00559199
-0.00609035
-0.00619482
0.000184786
0.000275944
0.000338985
0.000380251
0.000621659
0.000741352
0.000366547
-0.00016022
-0.000317876
-0.000176925
-0.000204817
-0.000687099
-0.00151582
-0.00241662
-0.0032373
-0.00398769
-0.00471718
-0.0054095
-0.00592933
-0.00606768
0.00016834
0.000259475
0.000329774
0.000326031
0.000518282
0.000693636
0.000383448
-0.000214348
-0.000498379
-0.000377272
-0.000329635
-0.000749877
-0.00157728
-0.00248699
-0.00325328
-0.003895
-0.00452097
-0.0051585
-0.00569181
-0.00588999
0.000152053
0.000237101
0.000318107
0.000280215
0.000405926
0.000616319
0.00038837
-0.000243178
-0.000661546
-0.000601537
-0.000478858
-0.000805185
-0.00161001
-0.00253966
-0.00328657
-0.00382231
-0.00431307
-0.00485762
-0.00537816
-0.00564729
0.000135661
0.000209322
0.000299877
0.000243313
0.000290799
0.000508993
0.000375291
-0.00025317
-0.000795686
-0.000834877
-0.00066272
-0.000864853
-0.00161105
-0.00255988
-0.00331882
-0.00378074
-0.00412128
-0.00453183
-0.00500425
-0.00533286
0.000118783
0.00017721
0.000272313
0.000212645
0.000182541
0.00037529
0.000334622
-0.000249099
-0.000895442
-0.00105997
-0.000881424
-0.000947217
-0.00158525
-0.00253481
-0.00332868
-0.00376389
-0.00397253
-0.00421687
-0.00459512
-0.00495102
0.000100855
0.000141725
0.000234876
0.000183674
8.74312e-05
0.000224778
0.000256701
-0.000241636
-0.000955035
-0.00126333
-0.00112253
-0.00106753
-0.00155334
-0.00245814
-0.00329803
-0.0037507
-0.00387727
-0.00395344
-0.00418771
-0.00452111
8.12643e-05
0.000103942
0.00018735
0.000152507
6.26639e-06
6.79052e-05
0.000142742
-0.000248119
-0.000976338
-0.00142773
-0.00136969
-0.00122993
-0.00153952
-0.00234268
-0.00321074
-0.00372034
-0.00382225
-0.00376666
-0.00382852
-0.00407194
5.91675e-05
6.51096e-05
0.000130634
0.000114627
-6.12318e-05
-8.57821e-05
-1.95087e-07
-0.000281692
-0.00097405
-0.00153683
-0.00160173
-0.00142914
-0.00156556
-0.00221666
-0.00306454
-0.00364971
-0.00378501
-0.00365343
-0.00355234
-0.0036488
3.36251e-05
2.59951e-05
6.70451e-05
6.54475e-05
-0.000118188
-0.000226244
-0.00016451
-0.000347394
-0.000963683
-0.0015925
-0.00179385
-0.00164799
-0.00164312
-0.0021096
-0.0028809
-0.00352115
-0.00373754
-0.00359161
-0.0033681
-0.00329769
3.86443e-06
-1.35567e-05
-5.59849e-07
3.05204e-06
-0.000170486
-0.000345527
-0.000338397
-0.000448149
-0.000959617
-0.0016081
-0.00192955
-0.00185959
-0.00177026
-0.00204861
-0.0026903
-0.00333625
-0.00364624
-0.00355056
-0.00326032
-0.00304495
-3.06141e-05
-5.42649e-05
-6.92605e-05
-7.12658e-05
-0.000224854
-0.000443262
-0.000506331
-0.000579922
-0.0009767
-0.00159573
-0.00200886
-0.00203884
-0.00192643
-0.00204726
-0.00252391
-0.00311945
-0.00349334
-0.00348701
-0.00320175
-0.00288984
-7.00012e-05
-9.71092e-05
-0.000136609
-0.000154395
-0.000286565
-0.000524741
-0.000655724
-0.000728696
-0.00102635
-0.00157289
-0.00203864
-0.00217099
-0.00208446
-0.00209962
-0.00240662
-0.00289988
-0.00328895
-0.00336966
-0.00314798
-0.0028083
-0.000114048
-0.000143173
-0.000201341
-0.000242352
-0.000358612
-0.000595956
-0.000781831
-0.000879512
-0.00110673
-0.00156119
-0.00203184
-0.00225097
-0.00222117
-0.00218246
-0.00234638
-0.00270614
-0.0030604
-0.00319768
-0.00306375
-0.00276631
-0.00016206
-0.000193216
-0.000263934
-0.000330518
-0.000440793
-0.000663511
-0.000885161
-0.00102024
-0.00120673
-0.00157309
-0.00200826
-0.00228213
-0.00232083
-0.00227171
-0.00233242
-0.00255776
-0.0028365
-0.00299407
-0.00294056
-0.00272527
-0.000213206
-0.0002473
-0.000325931
-0.000415216
-0.000529312
-0.000733584
-0.000970472
-0.00114245
-0.00131442
-0.00160857
-0.00198743
-0.00227911
-0.00237647
-0.00234665
-0.00234533
-0.00245925
-0.00264509
-0.00278562
-0.0027891
-0.0026628
-0.000266768
-0.000304811
-0.000388633
-0.000494992
-0.000619198
-0.00080872
-0.00104471
-0.00124333
-0.00141835
-0.00166123
-0.00197956
-0.0022591
-0.00239311
-0.00239423
-0.00236694
-0.00240219
-0.00250192
-0.00260099
-0.00263068
-0.00257598
-0.000322176
-0.000364697
-0.000452547
-0.00057016
-0.000706391
-0.00088733
-0.00111396
-0.00132614
-0.00151002
-0.00172184
-0.00198609
-0.00223645
-0.00238427
-0.00241241
-0.00238295
-0.00237196
-0.00240642
-0.00245841
-0.00248694
-0.00247682
-0.00037889
-0.000425726
-0.000517412
-0.000641636
-0.000788321
-0.000966138
-0.00118129
-0.00139609
-0.00158659
-0.00178145
-0.0020036
-0.00221908
-0.0023632
-0.00240833
-0.00238693
-0.00235508
-0.00234713
-0.00235974
-0.00237392
-0.00238361
-0.000436315
-0.000486714
-0.000582283
-0.000710281
-0.000863845
-0.00104196
-0.00124696
-0.0014573
-0.00164966
-0.00183426
-0.00202656
-0.00220938
-0.00234009
-0.00239215
-0.00237989
-0.00234247
-0.00231158
-0.00229685
-0.00229501
-0.00230942
-0.000493674
-0.000546674
-0.000645762
-0.000776342
-0.000933138
-0.00111222
-0.00130977
-0.00151229
-0.00170173
-0.00187832
-0.00204983
-0.00220634
-0.00232057
-0.00237208
-0.00236662
-0.00233048
-0.00228997
-0.00225962
-0.002246
-0.00225947
-0.000549968
-0.000604722
-0.000706456
-0.000839204
-0.000996786
-0.00117558
-0.00136788
-0.00156229
-0.00174552
-0.00191412
-0.00207033
-0.00220702
-0.00230613
-0.00235342
-0.00235162
-0.00231882
-0.00227625
-0.00223948
-0.00222015
-0.00223299
-0.000604015
-0.000659915
-0.000763186
-0.000897734
-0.00105491
-0.00123181
-0.00141987
-0.00160743
-0.00178345
-0.00194361
-0.00208733
-0.0022087
-0.00229532
-0.00233753
-0.00233739
-0.0023083
-0.00226765
-0.00223054
-0.00221096
-0.00222591
-0.00065448
-0.000711173
-0.000814963
-0.000950691
-0.00110712
-0.00128103
-0.00146502
-0.00164714
-0.00181685
-0.00196916
-0.00210224
-0.00221094
-0.00228666
-0.00232348
-0.00232371
-0.00229826
-0.00226197
-0.00222903
-0.00221357
-0.00223323
-0.000699919
-0.000757249
-0.000860837
-0.000996962
-0.00115267
-0.00132334
-0.00150305
-0.00168073
-0.00184557
-0.00199178
-0.00211684
-0.00221613
-0.0022825
-0.00231227
-0.00230973
-0.00228564
-0.0022539
-0.0022284
-0.00222215
-0.00224986
-0.000738752
-0.000796764
-0.000899786
-0.00103557
-0.00119079
-0.0013587
-0.00153414
-0.0017078
-0.00186883
-0.00201054
-0.00213018
-0.00222454
-0.0022874
-0.00231285
-0.00230411
-0.00227359
-0.00223818
-0.00221398
-0.00221479
-0.00225434
-0.000769198
-0.000828159
-0.000930726
-0.00106588
-0.00122091
-0.00138696
-0.00155885
-0.00172874
-0.00188646
-0.00202438
-0.00213959
-0.0022309
-0.00229567
-0.00232946
-0.0023281
-0.00229557
-0.00224519
-0.00219678
-0.00217296
-0.00219719
-0.000788887
-0.000849555
-0.000952707
-0.00108793
-0.00124341
-0.00140911
-0.00157927
-0.00174694
-0.00190243
-0.00203741
-0.00214829
-0.00223391
-0.00229153
-0.00231792
-0.00231594
-0.00229409
-0.00226486
-0.00224294
-0.00224349
-0.00228226
0.0119147
0.00655306
-0.00121717
-0.00672301
-0.00816387
-0.00725807
-0.00602081
-0.00518044
-0.0047669
-0.00463623
-0.00465181
-0.00472756
-0.00482228
-0.00491832
-0.00500649
-0.00508183
-0.00514449
-0.00519913
-0.00525222
-0.00530929
-0.00537304
-0.00544311
-0.00551759
-0.00559468
-0.00567285
-0.00575031
-0.00582535
-0.00589721
-0.00596685
-0.00603658
-0.0061076
-0.00617843
-0.00624587
-0.00630826
-0.00636725
-0.00642639
-0.00648805
-0.00655204
-0.00661635
-0.00667866
-0.00673774
-0.00679418
-0.00685039
-0.00690918
-0.00697118
-0.00703439
-0.00709608
-0.00715541
-0.00721427
-0.00727507
-0.00733844
-0.00740259
-0.0074652
-0.00752571
-0.00758543
-0.00764604
-0.00770736
-0.00776734
-0.00782459
-0.00787974
-0.00793432
-0.00798884
-0.00804206
-0.0080926
-0.00814091
-0.00818838
-0.00823541
-0.00828115
-0.00832505
-0.00836775
-0.00841023
-0.00845254
-0.00849404
-0.00853463
-0.00857494
-0.00861536
-0.00865566
-0.00869559
-0.00873523
-0.00877473
-0.00881396
-0.00885276
-0.0088912
-0.00892941
-0.00896745
-0.00900529
-0.00904294
-0.00908053
-0.00911832
-0.0091565
-0.00919509
-0.00923395
-0.00927301
-0.00931233
-0.00935198
-0.00939189
-0.00943192
-0.00947206
-0.00951236
-0.00955288
-0.00959365
-0.00963471
-0.00967612
-0.009718
-0.00976039
-0.00980332
-0.00984683
-0.00989094
-0.00993567
-0.00998102
-0.010027
-0.0100737
-0.010121
-0.010169
-0.0102176
-0.0102667
-0.0103165
-0.0103668
-0.0104177
-0.0104691
-0.010521
-0.0105736
-0.0106266
-0.0106803
-0.0107344
-0.0107892
-0.0108444
-0.0109004
-0.0109566
-0.0110137
-0.011071
-0.0111292
-0.0111877
-0.0112471
-0.0113067
-0.0113673
-0.0114281
-0.0114899
-0.0115518
-0.0116148
-0.0116781
-0.0117422
-0.0118067
-0.0118719
-0.0119379
-0.012004
-0.0120715
-0.0121387
-0.0122076
-0.0122758
-0.0123461
-0.0124156
-0.0124871
-0.0125581
-0.0126305
-0.0127032
-0.0127766
-0.012851
-0.0129253
-0.0130014
-0.0130769
-0.0131543
-0.0132314
-0.0133099
-0.0133889
-0.0134683
-0.0135491
-0.0136298
-0.0137119
-0.0137945
-0.0138775
-0.0139623
-0.0140462
-0.0141327
-0.0142186
-0.0143057
-0.0143945
-0.0144818
-0.014573
-0.014662
-0.0147537
-0.0148463
-0.0149373
-0.0150332
-0.0151257
-0.0152217
-0.0153187
-0.0154129
-0.0155137
-0.0156094
-0.0157091
-0.0158098
-0.0159078
-0.0160103
-0.0161106
-0.0162132
-0.0163112
-0.0164181
-0.0165028
-0.0165771
0.0110977
0.00636257
-0.00114054
-0.00658879
-0.00808235
-0.00721953
-0.00599688
-0.00516322
-0.00475413
-0.00462623
-0.0046435
-0.00472034
-0.00481587
-0.00491256
-0.00500129
-0.00507715
-0.00514026
-0.00519532
-0.00524877
-0.00530617
-0.0053702
-0.00544051
-0.0055152
-0.00559246
-0.0056708
-0.00574841
-0.00582359
-0.00589556
-0.00596531
-0.00603512
-0.00610623
-0.00617713
-0.00624466
-0.00630712
-0.00636618
-0.00642537
-0.00648708
-0.00655111
-0.00661546
-0.00667782
-0.00673695
-0.00679342
-0.00684967
-0.00690849
-0.00697051
-0.00703376
-0.00709547
-0.00715484
-0.00721372
-0.00727454
-0.00733794
-0.00740211
-0.00746475
-0.00752528
-0.00758503
-0.00764566
-0.00770699
-0.007767
-0.00782427
-0.00787944
-0.00793404
-0.00798858
-0.00804181
-0.00809238
-0.0081407
-0.00818818
-0.00823523
-0.00828098
-0.0083249
-0.00836761
-0.0084101
-0.00845242
-0.00849393
-0.00853453
-0.00857485
-0.00861528
-0.00865559
-0.00869552
-0.00873517
-0.00877467
-0.0088139
-0.00885271
-0.00889115
-0.00892937
-0.00896741
-0.00900526
-0.00904291
-0.00908051
-0.0091183
-0.00915648
-0.00919507
-0.00923393
-0.009273
-0.00931232
-0.00935197
-0.00939188
-0.00943191
-0.00947205
-0.00951235
-0.00955288
-0.00959365
-0.0096347
-0.00967612
-0.00971799
-0.00976038
-0.00980332
-0.00984683
-0.00989094
-0.00993566
-0.00998102
-0.010027
-0.0100737
-0.010121
-0.010169
-0.0102176
-0.0102667
-0.0103165
-0.0103668
-0.0104177
-0.0104691
-0.010521
-0.0105736
-0.0106266
-0.0106803
-0.0107344
-0.0107892
-0.0108444
-0.0109004
-0.0109566
-0.0110137
-0.011071
-0.0111292
-0.0111877
-0.0112471
-0.0113067
-0.0113673
-0.0114281
-0.0114899
-0.0115518
-0.0116148
-0.0116781
-0.0117422
-0.0118067
-0.0118719
-0.0119379
-0.012004
-0.0120715
-0.0121387
-0.0122076
-0.0122758
-0.0123461
-0.0124156
-0.0124871
-0.0125581
-0.0126305
-0.0127032
-0.0127766
-0.012851
-0.0129253
-0.0130014
-0.0130769
-0.0131543
-0.0132314
-0.0133099
-0.0133889
-0.0134683
-0.0135491
-0.0136298
-0.0137119
-0.0137945
-0.0138775
-0.0139623
-0.0140462
-0.0141327
-0.0142186
-0.0143057
-0.0143945
-0.0144818
-0.014573
-0.014662
-0.0147537
-0.0148463
-0.0149373
-0.0150332
-0.0151257
-0.0152217
-0.0153187
-0.0154129
-0.0155137
-0.0156094
-0.0157091
-0.0158098
-0.0159078
-0.0160103
-0.0161106
-0.0162132
-0.0163112
-0.0164181
-0.0165028
-0.016577
0.0102536
0.0061776
-0.000962999
-0.00632988
-0.00793115
-0.00715948
-0.00596625
-0.0051406
-0.00473651
-0.00461272
-0.00463295
-0.00471178
-0.00480864
-0.00490624
-0.00499562
-0.005072
-0.00513557
-0.00519105
-0.00524492
-0.00530271
-0.00536709
-0.00543771
-0.00551266
-0.00559013
-0.00566865
-0.00574642
-0.00582175
-0.00589387
-0.00596374
-0.00603365
-0.00610484
-0.00617582
-0.00624342
-0.00630596
-0.00636508
-0.00642434
-0.00648611
-0.00655019
-0.00661459
-0.00667698
-0.00673615
-0.00679267
-0.00684895
-0.0069078
-0.00696985
-0.00703313
-0.00709487
-0.00715426
-0.00721317
-0.00727401
-0.00733744
-0.00740164
-0.0074643
-0.00752485
-0.00758462
-0.00764527
-0.00770663
-0.00776665
-0.00782395
-0.00787913
-0.00793375
-0.00798831
-0.00804156
-0.00809215
-0.00814048
-0.00818798
-0.00823504
-0.00828081
-0.00832474
-0.00836746
-0.00840996
-0.0084523
-0.00849381
-0.00853442
-0.00857475
-0.00861519
-0.00865551
-0.00869544
-0.0087351
-0.00877461
-0.00881385
-0.00885266
-0.00889111
-0.00892932
-0.00896738
-0.00900523
-0.00904288
-0.00908048
-0.00911827
-0.00915646
-0.00919505
-0.00923392
-0.00927298
-0.00931231
-0.00935196
-0.00939186
-0.0094319
-0.00947204
-0.00951234
-0.00955287
-0.00959364
-0.0096347
-0.00967612
-0.00971799
-0.00976038
-0.00980332
-0.00984683
-0.00989094
-0.00993566
-0.00998102
-0.010027
-0.0100737
-0.010121
-0.010169
-0.0102176
-0.0102667
-0.0103165
-0.0103668
-0.0104177
-0.0104691
-0.010521
-0.0105736
-0.0106266
-0.0106803
-0.0107344
-0.0107892
-0.0108444
-0.0109004
-0.0109566
-0.0110137
-0.011071
-0.0111292
-0.0111877
-0.0112471
-0.0113067
-0.0113673
-0.0114281
-0.0114899
-0.0115518
-0.0116148
-0.0116781
-0.0117422
-0.0118067
-0.0118719
-0.0119379
-0.012004
-0.0120715
-0.0121387
-0.0122076
-0.0122758
-0.0123461
-0.0124156
-0.0124871
-0.0125581
-0.0126305
-0.0127032
-0.0127766
-0.012851
-0.0129253
-0.0130014
-0.0130769
-0.0131543
-0.0132315
-0.0133099
-0.0133889
-0.0134683
-0.0135491
-0.0136298
-0.0137119
-0.0137945
-0.0138775
-0.0139623
-0.0140462
-0.0141327
-0.0142186
-0.0143057
-0.0143945
-0.0144818
-0.014573
-0.014662
-0.0147537
-0.0148463
-0.0149373
-0.0150332
-0.0151257
-0.0152217
-0.0153187
-0.0154129
-0.0155137
-0.0156094
-0.0157091
-0.0158098
-0.0159078
-0.0160103
-0.0161106
-0.0162132
-0.0163112
-0.0164181
-0.0165028
-0.016577
0.00945757
0.00601405
-0.000712102
-0.00598471
-0.00772022
-0.00707411
-0.0059235
-0.00510782
-0.00471034
-0.00459315
-0.00461853
-0.00470084
-0.00479988
-0.00489878
-0.00498893
-0.00506579
-0.00512978
-0.00518569
-0.00524004
-0.00529831
-0.00536318
-0.00543425
-0.00550957
-0.00558734
-0.00566607
-0.00574404
-0.00581955
-0.00589186
-0.00596193
-0.00603201
-0.0061033
-0.00617435
-0.006242
-0.00630461
-0.00636384
-0.00642321
-0.00648507
-0.0065492
-0.00661363
-0.00667606
-0.00673527
-0.00679184
-0.00684817
-0.00690707
-0.00696915
-0.00703245
-0.00709422
-0.00715363
-0.00721257
-0.00727345
-0.00733689
-0.00740112
-0.0074638
-0.00752437
-0.00758416
-0.00764484
-0.00770622
-0.00776627
-0.00782358
-0.00787879
-0.00793343
-0.00798801
-0.00804128
-0.00809188
-0.00814024
-0.00818775
-0.00823483
-0.00828061
-0.00832455
-0.00836729
-0.0084098
-0.00845215
-0.00849368
-0.0085343
-0.00857464
-0.00861508
-0.00865541
-0.00869535
-0.00873502
-0.00877454
-0.00881378
-0.0088526
-0.00889105
-0.00892927
-0.00896733
-0.00900519
-0.00904284
-0.00908045
-0.00911824
-0.00915643
-0.00919503
-0.00923389
-0.00927296
-0.00931229
-0.00935194
-0.00939185
-0.00943189
-0.00947203
-0.00951233
-0.00955286
-0.00959363
-0.00963469
-0.00967611
-0.00971799
-0.00976038
-0.00980331
-0.00984683
-0.00989094
-0.00993566
-0.00998101
-0.010027
-0.0100737
-0.010121
-0.010169
-0.0102176
-0.0102667
-0.0103165
-0.0103668
-0.0104177
-0.0104691
-0.010521
-0.0105736
-0.0106266
-0.0106803
-0.0107344
-0.0107892
-0.0108444
-0.0109004
-0.0109566
-0.0110137
-0.011071
-0.0111292
-0.0111877
-0.0112471
-0.0113067
-0.0113673
-0.0114281
-0.0114899
-0.0115518
-0.0116148
-0.0116781
-0.0117422
-0.0118067
-0.0118719
-0.0119379
-0.012004
-0.0120715
-0.0121387
-0.0122076
-0.0122758
-0.0123461
-0.0124156
-0.0124871
-0.0125581
-0.0126305
-0.0127032
-0.0127766
-0.012851
-0.0129253
-0.0130014
-0.0130769
-0.0131543
-0.0132315
-0.0133099
-0.0133889
-0.0134683
-0.0135491
-0.0136298
-0.0137119
-0.0137945
-0.0138775
-0.0139623
-0.0140462
-0.0141327
-0.0142186
-0.0143057
-0.0143945
-0.0144818
-0.014573
-0.014662
-0.0147537
-0.0148463
-0.0149373
-0.0150332
-0.0151257
-0.0152217
-0.0153187
-0.0154129
-0.0155137
-0.0156094
-0.0157091
-0.0158098
-0.0159078
-0.0160103
-0.0161106
-0.0162132
-0.0163112
-0.0164181
-0.0165028
-0.016577
0.0086972
0.00583368
-0.000443287
-0.0056092
-0.00748417
-0.00697787
-0.00587556
-0.00506829
-0.00467657
-0.00456712
-0.00459931
-0.00468642
-0.00478855
-0.00488928
-0.00498041
-0.00505782
-0.00512221
-0.00517857
-0.00523345
-0.00529234
-0.00535785
-0.00542953
-0.0055054
-0.00558357
-0.00566259
-0.00574078
-0.00581653
-0.00588914
-0.00595953
-0.00602988
-0.00610133
-0.00617243
-0.00624011
-0.00630281
-0.0063622
-0.00642176
-0.00648379
-0.006548
-0.00661245
-0.00667489
-0.00673414
-0.00679079
-0.00684723
-0.0069062
-0.00696831
-0.00703161
-0.0070934
-0.00715285
-0.00721184
-0.00727275
-0.00733623
-0.00740047
-0.00746316
-0.00752377
-0.00758359
-0.00764429
-0.00770569
-0.00776576
-0.00782309
-0.00787833
-0.00793299
-0.0079876
-0.0080409
-0.00809152
-0.00813989
-0.00818743
-0.00823453
-0.00828034
-0.00832429
-0.00836705
-0.00840958