/*--------------------------------*- C++ -*----------------------------------*\
| =========                 |                                                 |
| \\      /  F ield         | OpenFOAM: The Open Source CFD Toolbox           |
|  \\    /   O peration     | Version:  v2012                                 |
|   \\  /    A nd           | Website:  www.openfoam.com                      |
|    \\/     M anipulation  |                                                 |
\*---------------------------------------------------------------------------*/
FoamFile
{
    version     2.0;
    format      ascii;
    class       surfaceScalarField;
    location    "0.5";
    object      phi;
}
// * * * * * * * * * * * * * * * * * * * * * * * * * * * * * * * * * * * * * //

dimensions      [0 3 -1 0 0 0 0];
oriented        oriented;


internalField   nonuniform List<scalar> 
34900
(
1.17639e-06
-9.17248e-08
1.16628e-06
3.87212e-08
1.17428e-06
-2.20534e-08
1.16521e-06
-4.41432e-09
1.1713e-06
5.19003e-08
1.16376e-06
-3.94142e-08
1.16949e-06
3.5384e-08
1.16366e-06
-5.35452e-08
1.16948e-06
3.3293e-08
1.16276e-06
-7.05417e-08
1.16931e-06
8.0195e-08
1.15915e-06
-9.55476e-08
1.16763e-06
1.49952e-07
1.15189e-06
-1.07717e-07
1.16288e-06
1.72502e-07
1.14233e-06
-8.16006e-08
1.15466e-06
1.33311e-07
1.13197e-06
-4.57627e-08
1.14109e-06
1.03696e-07
-2.71365e-08
1.09418e-06
1.23177e-06
-9.9237e-08
1.22393e-06
4.65624e-08
1.23043e-06
-2.85533e-08
1.2236e-06
2.42012e-09
1.22706e-06
4.84349e-08
1.22216e-06
-3.45067e-08
1.22473e-06
3.28134e-08
1.22225e-06
-5.10734e-08
1.22415e-06
3.13954e-08
1.22177e-06
-6.81587e-08
1.22271e-06
7.9253e-08
1.2189e-06
-9.17375e-08
1.21869e-06
1.50166e-07
1.21333e-06
-1.02358e-07
1.21067e-06
1.75164e-07
1.20757e-06
-7.85043e-08
1.19893e-06
1.41946e-07
1.20268e-06
-4.95112e-08
1.18174e-06
1.24639e-07
-2.49585e-08
1.17956e-06
1.28812e-06
-1.04573e-07
1.2857e-06
4.89859e-08
1.28839e-06
-3.12458e-08
1.28655e-06
4.25991e-09
1.28522e-06
4.97632e-08
1.28516e-06
-3.44461e-08
1.28258e-06
3.53889e-08
1.28517e-06
-5.36608e-08
1.28169e-06
3.48777e-08
1.28478e-06
-7.12518e-08
1.28021e-06
8.3828e-08
1.28211e-06
-9.36394e-08
1.27697e-06
1.55309e-07
1.27713e-06
-1.02519e-07
1.27152e-06
1.80768e-07
1.27205e-06
-7.90338e-08
1.26548e-06
1.48523e-07
1.26554e-06
-4.95691e-08
1.2579e-06
1.32277e-07
-7.72169e-09
1.24066e-06
1.34604e-06
-1.06514e-07
1.34962e-06
4.54091e-08
1.34799e-06
-2.9614e-08
1.35134e-06
9.1375e-10
1.34577e-06
5.53283e-08
1.34978e-06
-3.84571e-08
1.34359e-06
4.15806e-08
1.34918e-06
-5.9251e-08
1.34323e-06
4.08299e-08
1.3483e-06
-7.63197e-08
1.34309e-06
8.90358e-08
1.34566e-06
-9.62161e-08
1.34235e-06
1.58622e-07
1.34166e-06
-1.01826e-07
1.34024e-06
1.82189e-07
1.33777e-06
-7.65629e-08
1.33735e-06
1.48939e-07
1.3317e-06
-4.3917e-08
1.33108e-06
1.3289e-07
1.33759e-08
1.30999e-06
1.40665e-06
-1.04813e-07
1.41453e-06
3.75322e-08
1.40971e-06
-2.47908e-08
1.41624e-06
-5.61631e-09
1.40897e-06
6.2596e-08
1.41443e-06
-4.39184e-08
1.40788e-06
4.81275e-08
1.4133e-06
-6.46726e-08
1.40844e-06
4.56984e-08
1.41233e-06
-8.02152e-08
1.40965e-06
9.1714e-08
1.41058e-06
-9.71406e-08
1.41066e-06
1.58543e-07
1.40817e-06
-9.93416e-08
1.41008e-06
1.80277e-07
1.40548e-06
-7.19614e-08
1.40788e-06
1.46543e-07
1.39966e-06
-3.57024e-08
1.40127e-06
1.31282e-07
3.47218e-08
1.37993e-06
1.47127e-06
-1.00402e-07
1.48057e-06
2.82259e-08
1.47461e-06
-1.88283e-08
1.48162e-06
-1.26278e-08
1.47531e-06
6.89097e-08
1.47988e-06
-4.84954e-08
1.47525e-06
5.27623e-08
1.47881e-06
-6.82363e-08
1.47628e-06
4.82275e-08
1.47833e-06
-8.22576e-08
1.47809e-06
9.19471e-08
1.47773e-06
-9.67794e-08
1.47994e-06
1.56339e-07
1.47658e-06
-9.59885e-08
1.48023e-06
1.76632e-07
1.47452e-06
-6.62528e-08
1.47846e-06
1.42599e-07
1.46859e-06
-2.58262e-08
1.47177e-06
1.28101e-07
5.58776e-08
1.45061e-06
1.5407e-06
-9.48818e-08
1.54895e-06
1.99732e-08
1.54359e-06
-1.34716e-08
1.54923e-06
-1.82611e-08
1.54512e-06
7.30179e-08
1.54793e-06
-5.1311e-08
1.5455e-06
5.5194e-08
1.54723e-06
-6.99665e-08
1.54641e-06
4.90529e-08
1.5472e-06
-8.30518e-08
1.54828e-06
9.08709e-08
1.54735e-06
-9.58533e-08
1.55067e-06
1.53025e-07
1.54691e-06
-9.22329e-08
1.55177e-06
1.71769e-07
1.5452e-06
-5.96756e-08
1.55053e-06
1.37265e-07
1.53922e-06
-1.45166e-08
1.5437e-06
1.23617e-07
7.62783e-08
1.5233e-06
1.61492e-06
-8.96707e-08
1.62095e-06
1.39387e-08
1.61693e-06
-9.44639e-09
1.62068e-06
-2.20133e-08
1.61858e-06
7.5117e-08
1.61992e-06
-5.26488e-08
1.61889e-06
5.62177e-08
1.61946e-06
-7.05291e-08
1.61936e-06
4.91474e-08
1.61948e-06
-8.31679e-08
1.62109e-06
8.92576e-08
1.61985e-06
-9.46128e-08
1.62389e-06
1.48982e-07
1.61976e-06
-8.80946e-08
1.62573e-06
1.65792e-07
1.61831e-06
-5.22529e-08
1.62495e-06
1.30623e-07
1.61247e-06
-2.0333e-09
1.61783e-06
1.18252e-07
9.52686e-08
1.59884e-06
1.69337e-06
-8.54616e-08
1.69727e-06
1.0033e-08
1.69443e-06
-6.60795e-09
1.69671e-06
-2.42945e-08
1.69585e-06
7.5984e-08
1.69634e-06
-5.3141e-08
1.69592e-06
5.66379e-08
1.69586e-06
-7.04665e-08
1.69592e-06
4.90844e-08
1.69559e-06
-8.2836e-08
1.69743e-06
8.74143e-08
1.69583e-06
-9.30133e-08
1.7005e-06
1.44316e-07
1.69585e-06
-8.34496e-08
1.7029e-06
1.58741e-07
1.69462e-06
-4.39707e-08
1.70242e-06
1.22823e-07
1.6891e-06
1.12926e-08
1.69483e-06
1.12518e-07
1.12262e-07
1.67784e-06
1.77552e-06
-8.22614e-08
1.778e-06
7.55653e-09
1.77587e-06
-4.48446e-09
1.77733e-06
-2.57476e-08
1.77704e-06
7.62743e-08
1.77717e-06
-5.32725e-08
1.77693e-06
5.68809e-08
1.77652e-06
-7.00598e-08
1.77656e-06
4.90474e-08
1.77583e-06
-8.21051e-08
1.77784e-06
8.53977e-08
1.77577e-06
-9.09401e-08
1.78105e-06
1.39032e-07
1.77576e-06
-7.81551e-08
1.78386e-06
1.50644e-07
1.77471e-06
-3.48244e-08
1.78344e-06
1.14096e-07
1.76968e-06
2.50518e-08
1.7752e-06
1.0699e-07
1.26775e-07
1.76069e-06
1.86124e-06
-7.97502e-08
1.86299e-06
5.80127e-09
1.86117e-06
-2.66651e-09
1.86228e-06
-2.68539e-08
1.86222e-06
7.63396e-08
1.86224e-06
-5.32949e-08
1.86204e-06
5.70779e-08
1.86141e-06
-6.94306e-08
1.86145e-06
4.9014e-08
1.86032e-06
-8.09763e-08
1.86257e-06
8.31479e-08
1.85992e-06
-8.82921e-08
1.86586e-06
1.33088e-07
1.8598e-06
-7.20975e-08
1.8689e-06
1.41549e-07
1.85895e-06
-2.48701e-08
1.86827e-06
1.04775e-07
1.85456e-06
3.87609e-08
1.85928e-06
1.02271e-07
1.3846e-07
1.84759e-06
1.95068e-06
-7.75947e-08
1.95218e-06
4.30553e-09
1.95042e-06
-9.08751e-10
1.95143e-06
-2.78669e-08
1.95145e-06
7.63264e-08
1.95145e-06
-5.33019e-08
1.9513e-06
5.7228e-08
1.9505e-06
-6.86219e-08
1.95063e-06
4.88824e-08
1.94909e-06
-7.94382e-08
1.95168e-06
8.05539e-08
1.94838e-06
-8.49934e-08
1.95505e-06
1.26423e-07
1.94817e-06
-6.52167e-08
1.95816e-06
1.31555e-07
1.94756e-06
-1.42676e-08
1.95704e-06
9.52926e-08
1.94391e-06
5.18942e-08
1.94728e-06
9.88991e-08
1.47161e-07
1.93858e-06
2.04417e-06
-7.55714e-08
2.04564e-06
2.83386e-09
2.04381e-06
9.15527e-10
2.04484e-06
-2.889e-08
2.04487e-06
7.62923e-08
2.04487e-06
-5.33036e-08
2.04481e-06
5.72916e-08
2.04381e-06
-6.76283e-08
2.04416e-06
4.85334e-08
2.04219e-06
-7.74642e-08
2.04525e-06
7.74919e-08
2.04125e-06
-8.09898e-08
2.04868e-06
1.1899e-07
2.04099e-06
-5.75239e-08
2.05171e-06
1.20838e-07
2.04073e-06
-3.29249e-09
2.04988e-06
8.6145e-08
2.03781e-06
6.39585e-08
2.03948e-06
9.72305e-08
1.52976e-07
2.03367e-06
2.14199e-06
-7.35591e-08
2.14355e-06
1.2751e-09
2.14159e-06
2.87225e-09
2.14266e-06
-2.99571e-08
2.14269e-06
7.62588e-08
2.14266e-06
-5.327e-08
2.14273e-06
5.72222e-08
2.14151e-06
-6.64096e-08
2.14219e-06
4.78552e-08
2.13973e-06
-7.50098e-08
2.14338e-06
7.38488e-08
2.13863e-06
-7.62485e-08
2.14685e-06
1.10776e-07
2.13843e-06
-4.91108e-08
2.14962e-06
1.09657e-07
2.13865e-06
7.67432e-09
2.14694e-06
7.7852e-08
2.13636e-06
7.45383e-08
2.13621e-06
9.73868e-08
1.56254e-07
2.13293e-06
2.24442e-06
-7.14951e-08
2.24613e-06
-4.29864e-10
2.24401e-06
4.99676e-09
2.24512e-06
-3.10747e-08
2.24516e-06
7.62262e-08
2.24504e-06
-5.3153e-08
2.24529e-06
5.69703e-08
2.24378e-06
-6.4902e-08
2.24489e-06
4.67493e-08
2.2419e-06
-7.20168e-08
2.24621e-06
6.95355e-08
2.24073e-06
-7.07662e-08
2.24968e-06
1.01824e-07
2.24073e-06
-4.01593e-08
2.25203e-06
9.83499e-08
2.24152e-06
1.81917e-08
2.24848e-06
7.0889e-08
2.23968e-06
8.33403e-08
2.23779e-06
9.92782e-08
1.57513e-07
2.23653e-06
2.35173e-06
-6.9345e-08
2.35361e-06
-2.31666e-09
2.3513e-06
7.30492e-09
2.35247e-06
-3.22362e-08
2.35252e-06
7.61753e-08
2.35226e-06
-5.28954e-08
2.35275e-06
5.64782e-08
2.35088e-06
-6.30266e-08
2.3525e-06
4.51269e-08
2.34891e-06
-6.84243e-08
2.35394e-06
6.44977e-08
2.34776e-06
-6.45842e-08
2.35733e-06
9.22515e-08
2.34812e-06
-3.09454e-08
2.35917e-06
8.73041e-08
2.34951e-06
2.78424e-08
2.3548e-06
6.5603e-08
2.34789e-06
9.02462e-08
2.34455e-06
1.02622e-07
1.57356e-07
2.34471e-06
2.46414e-06
-6.70892e-08
2.46623e-06
-4.40355e-09
2.46374e-06
9.79622e-09
2.46492e-06
-3.34221e-08
2.46503e-06
7.60682e-08
2.46456e-06
-5.2431e-08
2.46537e-06
5.56753e-08
2.46304e-06
-6.06952e-08
2.46525e-06
4.2909e-08
2.46101e-06
-6.41838e-08
2.46678e-06
5.87293e-08
2.46001e-06
-5.78083e-08
2.46999e-06
8.22653e-08
2.46087e-06
-2.18278e-08
2.47125e-06
7.69267e-08
2.46281e-06
3.6283e-08
2.46625e-06
6.21614e-08
2.46116e-06
9.53401e-08
2.45681e-06
1.06973e-07
1.56393e-07
2.45777e-06
2.58192e-06
-6.47181e-08
2.58421e-06
-6.6914e-09
2.58155e-06
1.24532e-08
2.58273e-06
-3.45965e-08
2.58295e-06
7.58471e-08
2.5822e-06
-5.16812e-08
2.5834e-06
5.44769e-08
2.58052e-06
-5.78174e-08
2.5834e-06
4.00316e-08
2.57849e-06
-5.92773e-08
2.58493e-06
5.22861e-08
2.57774e-06
-5.0619e-08
2.58786e-06
7.21514e-08
2.57923e-06
-1.32023e-08
2.58857e-06
6.75913e-08
2.58156e-06
4.32869e-08
2.5832e-06
6.05234e-08
2.57964e-06
9.88999e-08
2.57481e-06
1.11807e-07
1.55171e-07
2.57603e-06
2.70534e-06
-6.22298e-08
2.70781e-06
-9.16257e-09
2.70503e-06
1.52385e-08
2.70613e-06
-3.57023e-08
2.70655e-06
7.54333e-08
2.70542e-06
-5.05533e-08
2.70711e-06
5.27876e-08
2.7036e-06
-5.43095e-08
2.70717e-06
3.64584e-08
2.70163e-06
-5.37367e-08
2.70862e-06
4.52986e-08
2.70127e-06
-4.32729e-08
2.71118e-06
6.22496e-08
2.70342e-06
-5.44254e-09
2.71142e-06
5.95844e-08
2.70594e-06
4.87721e-08
2.70599e-06
6.04731e-08
2.70358e-06
1.01311e-07
2.69875e-06
1.16629e-07
1.54092e-07
2.69983e-06
2.83467e-06
-5.96286e-08
2.83728e-06
-1.17795e-08
2.83443e-06
1.809e-08
2.83539e-06
-3.66591e-08
2.8361e-06
7.47268e-08
2.83449e-06
-4.89431e-08
2.83676e-06
5.05124e-08
2.83256e-06
-5.01105e-08
2.83682e-06
3.21989e-08
2.83075e-06
-4.76643e-08
2.83806e-06
3.79834e-08
2.83089e-06
-3.60977e-08
2.84021e-06
5.293e-08
2.83362e-06
1.14302e-09
2.84015e-06
5.30607e-08
2.83609e-06
5.28332e-08
2.83489e-06
6.1665e-08
2.83324e-06
1.02967e-07
2.8288e-06
1.21067e-07
1.53367e-07
2.82952e-06
2.97019e-06
-5.69238e-08
2.97289e-06
-1.44822e-08
2.97007e-06
2.09168e-08
2.97077e-06
-3.73623e-08
2.97189e-06
7.36102e-08
2.96969e-06
-4.67438e-08
2.97263e-06
4.7573e-08
2.96772e-06
-4.52023e-08
2.97259e-06
2.73298e-08
2.96617e-06
-4.12486e-08
2.97352e-06
3.06382e-08
2.96687e-06
-2.94545e-08
2.97527e-06
4.45302e-08
2.97004e-06
6.3768e-09
2.97508e-06
4.80212e-08
2.97219e-06
5.5722e-08
2.97016e-06
6.36961e-08
2.96893e-06
1.04198e-07
2.96509e-06
1.24904e-07
1.53031e-07
2.96543e-06
3.11221e-06
-5.41284e-08
3.11492e-06
-1.71866e-08
3.11223e-06
2.35975e-08
3.11256e-06
-3.76882e-08
3.11421e-06
7.19588e-08
3.11133e-06
-4.38626e-08
3.11497e-06
4.39296e-08
3.1094e-06
-3.96327e-08
3.11472e-06
2.20124e-08
3.10824e-06
-3.4762e-08
3.11526e-06
2.36128e-08
3.1095e-06
-2.36898e-08
3.11671e-06
3.73198e-08
3.11285e-06
1.02325e-08
3.11654e-06
4.43298e-08
3.11448e-06
5.77874e-08
3.11199e-06
6.61852e-08
3.11096e-06
1.05229e-07
3.1078e-06
1.28062e-07
1.53004e-07
3.10783e-06
3.26104e-06
-5.12592e-08
3.26364e-06
-1.97838e-08
3.26125e-06
2.59818e-08
3.26107e-06
-3.75029e-08
3.26337e-06
6.96558e-08
3.25975e-06
-4.02407e-08
3.26408e-06
3.96035e-08
3.25798e-06
-3.35344e-08
3.26349e-06
1.64962e-08
3.25727e-06
-2.85337e-08
3.26362e-06
1.72564e-08
3.259e-06
-1.90639e-08
3.26488e-06
3.14332e-08
3.26224e-06
1.28736e-08
3.26483e-06
4.17398e-08
3.26323e-06
5.93913e-08
3.26055e-06
6.88635e-08
3.25961e-06
1.06167e-07
3.25712e-06
1.30554e-07
1.53158e-07
3.25696e-06
3.41701e-06
-4.83349e-08
3.41937e-06
-2.21439e-08
3.41745e-06
2.78992e-08
3.41663e-06
-3.66801e-08
3.41967e-06
6.66168e-08
3.41531e-06
-3.58807e-08
3.42021e-06
3.4699e-08
3.41381e-06
-2.71293e-08
3.4192e-06
1.10967e-08
3.41358e-06
-2.29051e-08
3.41896e-06
1.18708e-08
3.41558e-06
-1.5686e-08
3.4202e-06
2.68157e-08
3.41841e-06
1.46608e-08
3.42019e-06
3.99677e-08
3.41876e-06
6.08144e-08
3.41602e-06
7.16076e-08
3.41516e-06
1.07026e-07
3.41327e-06
1.3244e-07
1.53372e-07
3.41306e-06
3.58045e-06
-4.53756e-08
3.58243e-06
-2.41227e-08
3.58115e-06
2.91759e-08
3.5796e-06
-3.51268e-08
3.5834e-06
6.28211e-08
3.57839e-06
-3.08749e-08
3.58367e-06
2.94195e-08
3.57726e-06
-2.07184e-08
3.5822e-06
6.15697e-09
3.57746e-06
-1.81704e-08
3.58169e-06
7.64998e-09
3.57947e-06
-1.34718e-08
3.58305e-06
2.32404e-08
3.58164e-06
1.60673e-08
3.58281e-06
3.87932e-08
3.58141e-06
6.22189e-08
3.57862e-06
7.43958e-08
3.57786e-06
1.07784e-07
3.57654e-06
1.33767e-07
1.53544e-07
3.57636e-06
3.75173e-06
-4.24007e-08
3.75319e-06
-2.55792e-08
3.7527e-06
2.96656e-08
3.75038e-06
-3.28117e-08
3.75487e-06
5.83352e-08
3.74941e-06
-2.54185e-08
3.75478e-06
2.40537e-08
3.7487e-06
-1.46441e-08
3.75286e-06
1.99677e-09
3.74919e-06
-1.44999e-08
3.75224e-06
4.60488e-09
3.7509e-06
-1.21301e-08
3.75373e-06
2.04061e-08
3.75227e-06
1.75253e-08
3.75293e-06
3.81349e-08
3.75148e-06
6.36669e-08
3.74864e-06
7.72409e-08
3.74799e-06
1.0843e-07
3.74721e-06
1.34551e-07
1.53579e-07
3.74717e-06
3.93121e-06
-3.94266e-08
3.93203e-06
-2.63942e-08
3.93241e-06
2.92845e-08
3.92939e-06
-2.97934e-08
3.9344e-06
5.3329e-08
3.92879e-06
-1.98068e-08
3.9339e-06
1.89447e-08
3.92849e-06
-9.24155e-09
3.93164e-06
-1.14958e-09
3.92904e-06
-1.18967e-08
3.93104e-06
2.59682e-09
3.93017e-06
-1.12575e-08
3.9325e-06
1.80791e-08
3.93072e-06
1.93018e-08
3.9308e-06
3.80568e-08
3.92932e-06
6.51494e-08
3.92641e-06
8.01519e-08
3.92588e-06
1.08954e-07
3.92563e-06
1.34808e-07
1.53362e-07
3.92584e-06
4.11929e-06
-3.64653e-08
4.11939e-06
-2.6494e-08
4.12062e-06
2.80496e-08
4.11707e-06
-2.62427e-08
4.12233e-06
4.80737e-08
4.11693e-06
-1.44093e-08
4.12143e-06
1.44436e-08
4.11695e-06
-4.75791e-09
4.11901e-06
-3.2146e-09
4.1173e-06
-1.01849e-08
4.1185e-06
1.39647e-09
4.11768e-06
-1.04359e-08
4.11957e-06
1.6193e-08
4.11741e-06
2.14542e-08
4.11676e-06
3.8706e-08
4.11528e-06
6.66321e-08
4.11233e-06
8.3099e-08
4.11193e-06
1.0936e-07
4.11216e-06
1.34581e-07
1.52754e-07
4.11276e-06
4.31636e-06
-3.35207e-08
4.31574e-06
-2.58714e-08
4.31767e-06
2.61101e-08
4.31388e-06
-2.24486e-08
4.31904e-06
4.29114e-08
4.31424e-06
-9.60421e-09
4.31786e-06
1.08197e-08
4.31436e-06
-1.25608e-09
4.31546e-06
-4.31772e-09
4.31435e-06
-9.07252e-09
4.31496e-06
7.84123e-10
4.31385e-06
-9.32308e-09
4.31521e-06
1.4829e-08
4.31275e-06
2.39196e-08
4.31128e-06
4.01794e-08
4.30978e-06
6.81308e-08
4.3069e-06
8.59755e-08
4.30658e-06
1.0968e-07
4.30723e-06
1.33932e-07
1.51629e-07
4.30835e-06
4.52284e-06
-3.05883e-08
4.52156e-06
-2.45939e-08
4.52392e-06
2.37542e-08
4.52027e-06
-1.8801e-08
4.52498e-06
3.81993e-08
4.52105e-06
-5.66792e-09
4.52373e-06
8.13661e-09
4.52107e-06
1.40308e-09
4.52144e-06
-4.68168e-09
4.52061e-06
-8.24911e-09
4.52075e-06
6.41704e-10
4.51915e-06
-7.71345e-09
4.5198e-06
1.41723e-08
4.51714e-06
2.65827e-08
4.51485e-06
4.24726e-08
4.51327e-06
6.97017e-08
4.51062e-06
8.86273e-08
4.51032e-06
1.09979e-07
4.51135e-06
1.32903e-07
1.49923e-07
4.51306e-06
4.73918e-06
-2.76541e-08
4.7374e-06
-2.28113e-08
4.73976e-06
2.13926e-08
4.7367e-06
-1.57383e-08
4.74067e-06
3.42288e-08
4.73768e-06
-2.6811e-09
4.73959e-06
6.22492e-09
4.73749e-06
3.50334e-09
4.73733e-06
-4.52379e-09
4.73656e-06
-7.47572e-09
4.73621e-06
9.90631e-10
4.73404e-06
-5.54147e-09
4.73381e-06
1.44028e-08
4.73096e-06
2.94304e-08
4.72804e-06
4.53964e-08
4.72632e-06
7.14175e-08
4.72401e-06
9.0937e-08
4.7237e-06
1.10291e-07
4.72508e-06
1.31519e-07
1.47638e-07
4.72737e-06
4.96584e-06
-2.46967e-08
4.96378e-06
-2.07522e-08
4.96567e-06
1.95078e-08
4.9636e-06
-1.3668e-08
4.9667e-06
3.11268e-08
4.96449e-06
-4.69146e-10
4.96598e-06
4.73534e-09
4.9641e-06
5.38192e-09
4.96355e-06
-3.98011e-09
4.96267e-06
-6.59447e-09
4.96177e-06
1.89454e-09
4.95899e-06
-2.76719e-09
4.9578e-06
1.5599e-08
4.95467e-06
3.25539e-08
4.9514e-06
4.86748e-08
4.94951e-06
7.33025e-08
4.94759e-06
9.28553e-08
4.94729e-06
1.10592e-07
4.94899e-06
1.2982e-07
1.4481e-07
4.95182e-06
5.20331e-06
-2.16918e-08
5.20127e-06
-1.87099e-08
5.2022e-06
1.85738e-08
5.20136e-06
-1.28249e-08
5.20372e-06
2.87678e-08
5.20187e-06
1.37971e-09
5.20334e-06
3.26771e-09
5.20149e-06
7.23336e-09
5.20045e-06
-2.93893e-09
5.19944e-06
-5.58918e-09
5.19791e-06
3.4281e-09
5.19446e-06
6.75881e-10
5.19235e-06
1.77075e-08
5.18888e-06
3.60309e-08
5.18541e-06
5.21387e-08
5.18344e-06
7.52813e-08
5.18191e-06
9.43836e-08
5.1817e-06
1.10804e-07
5.18364e-06
1.27877e-07
1.41484e-07
5.18696e-06
5.45212e-06
-1.86196e-08
5.45042e-06
-1.70117e-08
5.45003e-06
1.89647e-08
5.45034e-06
-1.31371e-08
5.45236e-06
2.67438e-08
5.45035e-06
3.39319e-09
5.45206e-06
1.56204e-09
5.45029e-06
8.99454e-09
5.44847e-06
-1.11183e-09
5.44728e-06
-4.40337e-09
5.44516e-06
5.54851e-09
5.44093e-06
4.90805e-09
5.43806e-06
2.05809e-08
5.43427e-06
3.98145e-08
5.43062e-06
5.57949e-08
5.42868e-06
7.72221e-08
5.42752e-06
9.55372e-08
5.4275e-06
1.10821e-07
5.42963e-06
1.25755e-07
1.3773e-07
5.43338e-06
5.71281e-06
-1.5474e-08
5.71179e-06
-1.59869e-08
5.70987e-06
2.08797e-08
5.7109e-06
-1.41598e-08
5.71318e-06
2.44605e-08
5.71061e-06
5.96247e-09
5.7125e-06
-3.3165e-10
5.71109e-06
1.04094e-08
5.70825e-06
1.72939e-09
5.70664e-06
-2.79583e-09
5.70404e-06
8.14464e-09
5.69911e-06
9.84338e-09
5.69545e-06
2.42382e-08
5.69148e-06
4.37841e-08
5.68767e-06
5.96074e-08
5.6858e-06
7.90916e-08
5.68501e-06
9.63251e-08
5.6853e-06
1.10531e-07
5.6876e-06
1.2346e-07
1.3364e-07
5.69169e-06
5.98599e-06
-1.22722e-08
5.9859e-06
-1.58973e-08
5.98254e-06
2.4246e-08
5.98345e-06
-1.50729e-08
5.98664e-06
2.12713e-08
5.98343e-06
9.17048e-09
5.98509e-06
-1.9929e-09
5.98433e-06
1.11689e-08
5.98052e-06
5.54104e-09
5.97806e-06
-3.36265e-10
5.97515e-06
1.10532e-08
5.96961e-06
1.53801e-08
5.96518e-06
2.86702e-08
5.96114e-06
4.78253e-08
5.95725e-06
6.34974e-08
5.95541e-06
8.09347e-08
5.95498e-06
9.67541e-08
5.95566e-06
1.09853e-07
5.95818e-06
1.2094e-07
1.29302e-07
5.96251e-06
6.27228e-06
-9.06304e-09
6.27318e-06
-1.67951e-08
6.2688e-06
2.86241e-08
6.26859e-06
-1.48596e-08
6.27313e-06
1.67312e-08
6.26962e-06
1.2675e-08
6.2704e-06
-2.76675e-09
6.27039e-06
1.11764e-08
6.26595e-06
9.97511e-09
6.26223e-06
3.3903e-09
6.25895e-06
1.43292e-08
6.25307e-06
2.12605e-08
6.24805e-06
3.36951e-08
6.24388e-06
5.199e-08
6.24003e-06
6.73476e-08
6.23817e-06
8.27981e-08
6.23805e-06
9.68681e-08
6.23917e-06
1.08736e-07
6.24197e-06
1.18139e-07
1.24768e-07
6.2465e-06
6.57234e-06
-5.93072e-09
6.57401e-06
-1.84651e-08
6.56945e-06
3.31846e-08
6.56705e-06
-1.24679e-08
6.57306e-06
1.07248e-08
6.5699e-06
1.58391e-08
6.56914e-06
-2.00691e-09
6.56977e-06
1.05453e-08
6.56517e-06
1.45757e-08
6.55989e-06
8.67127e-09
6.55613e-06
1.80882e-08
6.55009e-06
2.72988e-08
6.54471e-06
3.90723e-08
6.54039e-06
5.63126e-08
6.5367e-06
7.10381e-08
6.53477e-06
8.47228e-08
6.5349e-06
9.67414e-08
6.53647e-06
1.07168e-07
6.53959e-06
1.15024e-07
1.20057e-07
6.5443e-06
6.88685e-06
-2.99287e-09
6.88886e-06
-2.04735e-08
6.88514e-06
3.69093e-08
6.87988e-06
-7.20795e-09
6.88679e-06
3.81017e-09
6.88487e-06
1.77599e-08
6.88222e-06
6.46318e-10
6.88304e-06
9.71852e-09
6.87872e-06
1.88961e-08
6.87205e-06
1.53435e-08
6.86731e-06
2.2831e-08
6.86147e-06
3.31406e-08
6.85575e-06
4.47917e-08
6.85143e-06
6.06276e-08
6.84792e-06
7.45464e-08
6.84599e-06
8.66574e-08
6.84624e-06
9.64948e-08
6.84821e-06
1.05191e-07
6.85167e-06
1.11567e-07
1.15161e-07
6.85656e-06
7.21653e-06
-3.85323e-10
7.21833e-06
-2.22706e-08
7.21642e-06
3.88158e-08
7.2082e-06
1.01016e-09
7.21479e-06
-2.77449e-09
7.21491e-06
1.76403e-08
7.21061e-06
4.93697e-09
7.21079e-06
9.54809e-09
7.20712e-06
2.2563e-08
7.19955e-06
2.29086e-08
7.19358e-06
2.88002e-08
7.18772e-06
3.90074e-08
7.18195e-06
5.05639e-08
7.17772e-06
6.48483e-08
7.17441e-06
7.786e-08
7.1726e-06
8.84651e-08
7.17283e-06
9.62629e-08
7.17511e-06
1.0292e-07
7.1789e-06
1.07776e-07
1.10055e-07
7.184e-06
7.56208e-06
1.76492e-09
7.56314e-06
-2.33366e-08
7.56369e-06
3.82672e-08
7.55315e-06
1.15528e-08
7.55774e-06
-7.37142e-09
7.56043e-06
1.49536e-08
7.55522e-06
1.01458e-08
7.55387e-06
1.09013e-08
7.55074e-06
2.5696e-08
7.54317e-06
3.04733e-08
7.53583e-06
3.61371e-08
7.5297e-06
4.51455e-08
7.52413e-06
5.61349e-08
7.51995e-06
6.90202e-08
7.51693e-06
8.0883e-08
7.51535e-06
9.00462e-08
7.51553e-06
9.608e-08
7.51795e-06
1.00501e-07
7.52206e-06
1.03671e-07
1.04701e-07
7.52741e-06
7.92423e-06
3.343e-09
7.92413e-06
-2.32356e-08
7.92725e-06
3.51487e-08
7.91562e-06
2.31855e-08
7.91688e-06
-8.632e-09
7.92175e-06
1.00801e-08
7.91674e-06
1.51556e-08
7.91338e-06
1.42675e-08
7.91049e-06
2.85855e-08
7.90328e-06
3.76775e-08
7.89508e-06
4.43363e-08
7.88841e-06
5.18228e-08
7.88298e-06
6.15614e-08
7.87895e-06
7.30459e-08
7.87627e-06
8.35679e-08
7.87496e-06
9.13551e-08
7.87522e-06
9.58223e-08
7.87765e-06
9.80713e-08
7.88196e-06
9.93544e-08
9.90719e-08
7.88759e-06
8.30375e-06
4.27547e-09
8.3022e-06
-2.16845e-08
8.30749e-06
2.98517e-08
8.29644e-06
3.42391e-08
8.29343e-06
-5.61939e-09
8.29936e-06
4.14408e-09
8.29572e-06
1.87962e-08
8.29041e-06
1.95826e-08
8.28721e-06
3.17796e-08
8.28051e-06
4.43796e-08
8.27214e-06
5.27054e-08
8.26485e-06
5.91179e-08
8.25935e-06
6.70568e-08
8.25557e-06
7.68266e-08
8.25325e-06
8.58932e-08
8.25223e-06
9.23738e-08
8.25272e-06
9.53266e-08
8.25513e-06
9.56666e-08
8.25952e-06
9.49609e-08
9.32634e-08
8.26533e-06
8.70137e-06
4.56505e-09
8.69832e-06
-1.86355e-08
8.70504e-06
2.31366e-08
8.69624e-06
4.30345e-08
8.6887e-06
1.91972e-09
8.6939e-06
-1.0564e-09
8.69262e-06
2.00838e-08
8.68623e-06
2.59647e-08
8.68161e-06
3.64061e-08
8.67568e-06
5.03034e-08
8.66762e-06
6.07671e-08
8.65991e-06
6.6826e-08
8.65425e-06
7.27218e-08
8.65065e-06
8.04262e-08
8.64869e-06
8.78579e-08
8.64806e-06
9.29974e-08
8.64884e-06
9.45518e-08
8.65129e-06
9.32174e-08
8.65565e-06
9.05939e-08
8.74025e-08
8.66151e-06
9.11791e-06
4.27871e-09
9.11355e-06
-1.42778e-08
9.1208e-06
1.58829e-08
9.11525e-06
4.8591e-08
9.10421e-06
1.29561e-08
9.10668e-06
-3.52946e-09
9.1079e-06
1.88607e-08
9.10144e-06
3.24346e-08
9.09528e-06
4.25631e-08
9.08959e-06
5.59871e-08
9.0822e-06
6.81569e-08
9.0745e-06
7.45292e-08
9.06867e-06
7.85506e-08
9.06516e-06
8.39427e-08
9.06352e-06
8.94975e-08
9.06335e-06
9.3166e-08
9.06442e-06
9.34831e-08
9.06696e-06
9.06781e-08
9.07118e-06
8.63665e-08
8.15677e-08
9.07702e-06
9.55421e-06
3.53249e-09
9.54895e-06
-9.01817e-09
9.55571e-06
9.12074e-09
9.55388e-06
5.04172e-08
9.54095e-06
2.58915e-08
9.53929e-06
-1.87108e-09
9.54211e-06
1.60345e-08
9.53681e-06
3.77374e-08
9.52944e-06
4.99319e-08
9.52331e-06
6.21236e-08
9.51673e-06
7.47354e-08
9.50952e-06
8.17384e-08
9.50361e-06
8.44618e-08
9.50007e-06
8.74813e-08
9.49872e-06
9.08505e-08
9.499e-06
9.28789e-08
9.50043e-06
9.20556e-08
9.50307e-06
8.80372e-08
9.50723e-06
8.22115e-08
7.59037e-08
9.51289e-06
1.00112e-05
2.48218e-09
1.00055e-05
-3.34536e-09
1.00109e-05
3.69305e-09
1.00126e-05
4.87369e-08
9.99961e-06
3.88973e-08
9.99339e-06
4.3536e-09
9.99611e-06
1.33164e-08
9.99294e-06
4.09103e-08
9.98515e-06
5.77149e-08
9.97815e-06
6.91237e-08
9.97218e-06
8.07053e-08
9.96583e-06
8.80956e-08
9.95999e-06
9.0299e-08
9.95651e-06
9.09606e-08
9.95525e-06
9.21097e-08
9.956e-06
9.21297e-08
9.95789e-06
9.01647e-08
9.96073e-06
8.51998e-08
9.96476e-06
7.81794e-08
7.04595e-08
9.9702e-06
1.04898e-05
1.30058e-09
1.04843e-05
2.18711e-09
1.04877e-05
2.79366e-10
1.04922e-05
4.42313e-08
1.04807e-05
5.03862e-08
1.04706e-05
1.44394e-08
1.04713e-05
1.26218e-08
1.04704e-05
4.18369e-08
1.04633e-05
6.47889e-08
1.04557e-05
7.67944e-08
1.04498e-05
8.6608e-08
1.04443e-05
9.35802e-08
1.0439e-05
9.55959e-08
1.04355e-05
9.44678e-08
1.04343e-05
9.33088e-08
1.04353e-05
9.11206e-08
1.04378e-05
8.76762e-08
1.0441e-05
8.19183e-08
1.0445e-05
7.42243e-08
6.53778e-08
1.04501e-05
1.09911e-05
1.72489e-10
1.09863e-05
7.01025e-09
1.09873e-05
-6.53386e-10
1.09936e-05
3.78622e-08
1.09849e-05
5.9077e-08
1.0972e-05
2.73485e-08
1.09696e-05
1.50729e-08
1.09701e-05
4.13415e-08
1.09648e-05
7.00605e-08
1.0957e-05
8.45745e-08
1.09508e-05
9.28587e-08
1.0946e-05
9.83648e-08
1.09415e-05
1.00116e-07
1.09381e-05
9.78025e-08
1.09369e-05
9.45033e-08
1.0938e-05
9.00756e-08
1.09409e-05
8.47884e-08
1.09448e-05
7.7971e-08
1.09491e-05
6.99584e-08
6.07145e-08
1.09537e-05
1.15163e-05
-7.29756e-10
1.15125e-05
1.08236e-08
1.15111e-05
7.28422e-10
1.1518e-05
3.09319e-08
1.15128e-05
6.42979e-08
1.14986e-05
4.1509e-08
1.14925e-05
2.11494e-08
1.14933e-05
4.06307e-08
1.14903e-05
7.30434e-08
1.14831e-05
9.17189e-08
1.14766e-05
9.93754e-08
1.14723e-05
1.02709e-07
1.14685e-05
1.03857e-07
1.14657e-05
1.00652e-07
1.14645e-05
9.56995e-08
1.14654e-05
8.91244e-08
1.14683e-05
8.18764e-08
1.14727e-05
7.36536e-08
1.14774e-05
6.51867e-08
5.61016e-08
1.1482e-05
1.20663e-05
-1.25625e-09
1.20638e-05
1.33903e-08
1.20604e-05
4.12671e-09
1.20667e-05
2.46046e-08
1.20651e-05
6.58609e-08
1.20511e-05
5.5513e-08
1.20419e-05
3.04093e-08
1.20415e-05
4.09695e-08
1.20406e-05
7.39845e-08
1.2035e-05
9.73079e-08
1.20286e-05
1.05814e-07
1.20244e-05
1.06922e-07
1.20215e-05
1.06719e-07
1.20192e-05
1.02969e-07
1.20182e-05
9.66983e-08
1.20189e-05
8.83713e-08
1.20216e-05
7.91697e-08
1.20259e-05
6.94215e-08
1.2031e-05
6.00901e-08
5.10042e-08
1.20361e-05
1.26426e-05
-1.29645e-09
1.26414e-05
1.46609e-08
1.26365e-05
8.9917e-09
1.26413e-05
1.9811e-08
1.26428e-05
6.43092e-08
1.26305e-05
6.79039e-08
1.26189e-05
4.19724e-08
1.26166e-05
4.32648e-08
1.2617e-05
7.36152e-08
1.26136e-05
1.00707e-07
1.26078e-05
1.1155e-07
1.26037e-05
1.11046e-07
1.26016e-05
1.08787e-07
1.26e-05
1.0456e-07
1.25993e-05
9.74593e-08
1.25999e-05
8.77226e-08
1.26023e-05
7.68016e-08
1.26063e-05
6.54512e-08
1.26114e-05
5.49491e-08
4.54592e-08
1.2617e-05
1.32464e-05
-7.95194e-10
1.32464e-05
1.47167e-08
1.32406e-05
1.47612e-08
1.32433e-05
1.70685e-08
1.32471e-05
6.05821e-08
1.32375e-05
7.75113e-08
1.32244e-05
5.50283e-08
1.32202e-05
4.74657e-08
1.3221e-05
7.28458e-08
1.32198e-05
1.0193e-07
1.32155e-05
1.15836e-07
1.32116e-05
1.14905e-07
1.32101e-05
1.10264e-07
1.32096e-05
1.05123e-07
1.32092e-05
9.78453e-08
1.32098e-05
8.71158e-08
1.32119e-05
7.46868e-08
1.32156e-05
6.17563e-08
1.32205e-05
5.00078e-08
3.99697e-08
1.3226e-05
1.38791e-05
2.30397e-10
1.388e-05
1.38231e-08
1.3874e-05
2.07635e-08
1.38744e-05
1.6676e-08
1.38794e-05
5.56316e-08
1.38731e-05
8.38289e-08
1.38598e-05
6.82433e-08
1.38535e-05
5.37749e-08
1.38543e-05
7.20372e-08
1.38549e-05
1.01392e-07
1.38524e-05
1.18276e-07
1.38494e-05
1.17971e-07
1.38483e-05
1.11373e-07
1.38489e-05
1.04509e-07
1.38494e-05
9.73186e-08
1.385e-05
8.65195e-08
1.38518e-05
7.28778e-08
1.38551e-05
5.8456e-08
1.38598e-05
4.53658e-08
3.49817e-08
1.38647e-05
1.45422e-05
1.70042e-09
1.45437e-05
1.2322e-08
1.45381e-05
2.63622e-08
1.4536e-05
1.87416e-08
1.45414e-05
5.02771e-08
1.45384e-05
8.68453e-08
1.45261e-05
8.04705e-08
1.45181e-05
6.18612e-08
1.45184e-05
7.17009e-08
1.45205e-05
9.92814e-08
1.45199e-05
1.18835e-07
1.4518e-05
1.19931e-07
1.45174e-05
1.11918e-07
1.45189e-05
1.03094e-07
1.45209e-05
9.52954e-08
1.45221e-05
8.52976e-08
1.45235e-05
7.14593e-08
1.45259e-05
5.60415e-08
1.45295e-05
4.18064e-08
3.05555e-08
1.45339e-05
1.52371e-05
3.46134e-09
1.52388e-05
1.06376e-08
1.52341e-05
3.10217e-08
1.52298e-05
2.30724e-08
1.52347e-05
4.53599e-08
1.52347e-05
8.6829e-08
1.52244e-05
9.08283e-08
1.52152e-05
7.10259e-08
1.52146e-05
7.22996e-08
1.5218e-05
9.59256e-08
1.52194e-05
1.17426e-07
1.52186e-05
1.20703e-07
1.52188e-05
1.1169e-07
1.52208e-05
1.01129e-07
1.52241e-05
9.19869e-08
1.52266e-05
8.27954e-08
1.52281e-05
6.99687e-08
1.52299e-05
5.43022e-08
1.52322e-05
3.9456e-08
2.74218e-08
1.52353e-05
1.59655e-05
5.31569e-09
1.59668e-05
9.33215e-09
1.59636e-05
3.41628e-08
1.59575e-05
2.92083e-08
1.5961e-05
4.18824e-08
1.59638e-05
8.40275e-08
1.59559e-05
9.86794e-08
1.59464e-05
8.05791e-08
1.59447e-05
7.39781e-08
1.59487e-05
9.19552e-08
1.59522e-05
1.13923e-07
1.59528e-05
1.20088e-07
1.59535e-05
1.10944e-07
1.59562e-05
9.84204e-08
1.59601e-05
8.81497e-08
1.5964e-05
7.89129e-08
1.5966e-05
6.79556e-08
1.59671e-05
5.32131e-08
1.59685e-05
3.80653e-08
2.56749e-08
1.59702e-05
1.67288e-05
7.07069e-09
1.67294e-05
8.82141e-09
1.67279e-05
3.56281e-08
1.67208e-05
3.62915e-08
1.67222e-05
4.05309e-08
1.67269e-05
7.93248e-08
1.67223e-05
1.03231e-07
1.6713e-05
8.98899e-08
1.67101e-05
7.68446e-08
1.67143e-05
8.78227e-08
1.67196e-05
1.08602e-07
1.67219e-05
1.17748e-07
1.67231e-05
1.09744e-07
1.67261e-05
9.54305e-08
1.67304e-05
8.3834e-08
1.67349e-05
7.44617e-08
1.67378e-05
6.50272e-08
1.67386e-05
5.24532e-08
1.67388e-05
3.78756e-08
2.49572e-08
1.67395e-05
1.75289e-05
8.55828e-09
1.75284e-05
9.27149e-09
1.75283e-05
3.57289e-08
1.75213e-05
4.32654e-08
1.75202e-05
4.16355e-08
1.75258e-05
7.37354e-08
1.75248e-05
1.04241e-07
1.75167e-05
9.79711e-08
1.75126e-05
8.09681e-08
1.75165e-05
8.39645e-08
1.75231e-05
1.01982e-07
1.75274e-05
1.13446e-07
1.75293e-05
1.07872e-07
1.7532e-05
9.27492e-08
1.75366e-05
7.92278e-08
1.75412e-05
6.98017e-08
1.75447e-05
6.15167e-08
1.75459e-05
5.12981e-08
1.75451e-05
3.86088e-08
2.53916e-08
1.75447e-05
1.83673e-05
9.65378e-09
1.83657e-05
1.07772e-08
1.83666e-05
3.48708e-08
1.83607e-05
4.91701e-08
1.83572e-05
4.50971e-08
1.83627e-05
6.82235e-08
1.8365e-05
1.01999e-07
1.83591e-05
1.03871e-07
1.83542e-05
8.5905e-08
1.8357e-05
8.11376e-08
1.83644e-05
9.45566e-08
1.83707e-05
1.07194e-07
1.83735e-05
1.05056e-07
1.83759e-05
9.03537e-08
1.83798e-05
7.52807e-08
1.83849e-05
6.47226e-08
1.83886e-05
5.78444e-08
1.83904e-05
4.94545e-08
1.83899e-05
3.91463e-08
2.69439e-08
1.83883e-05
1.92457e-05
1.02955e-08
1.92433e-05
1.31877e-08
1.92446e-05
3.36265e-08
1.92404e-05
5.33661e-08
1.92354e-05
5.00959e-08
1.92396e-05
6.39938e-08
1.92445e-05
9.7121e-08
1.92416e-05
1.0676e-07
1.92366e-05
9.08955e-08
1.92379e-05
7.98608e-08