/*--------------------------------*- C++ -*----------------------------------*\
| =========                 |                                                 |
| \\      /  F ield         | OpenFOAM: The Open Source CFD Toolbox           |
|  \\    /   O peration     | Version:  v2012                                 |
|   \\  /    A nd           | Website:  www.openfoam.com                      |
|    \\/     M anipulation  |                                                 |
\*---------------------------------------------------------------------------*/
FoamFile
{
    version     2.0;
    format      ascii;
    class       volScalarField;
    location    "0.7";
    object      p;
}
// * * * * * * * * * * * * * * * * * * * * * * * * * * * * * * * * * * * * * //

dimensions      [0 2 -2 0 0 0 0];


internalField   nonuniform List<scalar> 
17600
(
-2.36277e-11
0.00112446
0.000677953
0.000546049
0.00105561
0.000577779
0.000526001
-7.52079e-05
-0.000167186
-0.0011354
-0.00184755
-0.00217109
-0.00277098
-0.00264011
-0.00292164
-0.00251082
-0.00196747
-0.000587968
0.00117198
0.00469235
7.27545e-07
0.00112382
0.000679087
0.000545186
0.0010563
0.000575292
0.000526791
-7.84986e-05
-0.000165237
-0.0011389
-0.00184505
-0.00217979
-0.00276727
-0.00264778
-0.00291695
-0.00253049
-0.00195949
-0.00064517
0.00118458
0.00439767
2.05074e-06
0.00112254
0.000680713
0.000543693
0.00105663
0.000571321
0.000527453
-8.37152e-05
-0.000162331
-0.0011443
-0.00184081
-0.00218976
-0.00276171
-0.00265826
-0.00291128
-0.00255455
-0.00195155
-0.000709775
0.00118254
0.0039888
4.12565e-06
0.00112082
0.000682148
0.00054233
0.00105588
0.000566544
0.000527219
-9.0178e-05
-0.000159778
-0.00115005
-0.00183604
-0.00219765
-0.00275598
-0.00266904
-0.00290668
-0.00257994
-0.00194676
-0.000773932
0.00115012
0.00358562
7.32876e-06
0.00111852
0.000683451
0.000541117
0.00105392
0.000560925
0.000526312
-9.77612e-05
-0.000157053
-0.0011557
-0.00183055
-0.00220506
-0.00274969
-0.0026808
-0.00290221
-0.0026077
-0.00194385
-0.00084092
0.00108579
0.00320389
1.18043e-05
0.0011155
0.000684692
0.000539848
0.0010509
0.000554591
0.000525173
-0.000105998
-0.000153533
-0.00116096
-0.00182418
-0.00221211
-0.00274283
-0.00269368
-0.00289764
-0.00263785
-0.00194341
-0.000912222
0.000991215
0.00284591
1.74186e-05
0.00111171
0.000685867
0.000538415
0.00104714
0.000547777
0.000524091
-0.000114387
-0.000149196
-0.00116574
-0.00181718
-0.00221891
-0.00273573
-0.00270742
-0.00289366
-0.00266968
-0.00194773
-0.000987447
0.000868384
0.00250746
2.39008e-05
0.00110725
0.000686997
0.0005368
0.00104296
0.000540628
0.000523173
-0.000122693
-0.000144338
-0.00117009
-0.00181
-0.0022256
-0.0027288
-0.00272176
-0.00289103
-0.0027024
-0.0019594
-0.00106522
0.000718806
0.00218227
3.09927e-05
0.00110224
0.000688128
0.000534997
0.00103863
0.000533174
0.000522419
-0.000130883
-0.000139226
-0.00117407
-0.00180299
-0.00223214
-0.0027224
-0.00273641
-0.00289056
-0.00273525
-0.0019805
-0.00114473
0.00054414
0.00186403
3.85242e-05
0.00109682
0.000689297
0.000532997
0.00103425
0.000525401
0.000521788
-0.000138969
-0.000134013
-0.00117764
-0.00179639
-0.00223838
-0.00271686
-0.00275094
-0.00289314
-0.00276755
-0.00201256
-0.00122629
0.000346931
0.00154721
4.64157e-05
0.00109108
0.000690528
0.000530781
0.00102989
0.0005173
0.000521234
-0.000146921
-0.000128791
-0.00118069
-0.00179041
-0.00224406
-0.00271255
-0.00276487
-0.00289967
-0.00279888
-0.00205659
-0.00131148
0.000130866
0.00122748
5.46483e-05
0.00108506
0.00069184
0.000528326
0.00102556
0.000508879
0.000520711
-0.000154654
-0.000123638
-0.00118305
-0.00178532
-0.00224879
-0.00271001
-0.00277768
-0.002911
-0.00282927
-0.00211285
-0.00140289
-9.96519e-05
0.000902105
6.32321e-05
0.00107879
0.000693253
0.000525606
0.00102127
0.000500166
0.000520169
-0.000162044
-0.00011866
-0.00118448
-0.00178144
-0.0022521
-0.00270984
-0.00278896
-0.00292779
-0.00285947
-0.00218066
-0.00150369
-0.000340479
0.000570098
7.21865e-05
0.00107223
0.000694788
0.000522596
0.00101703
0.0004912
0.000519553
-0.000168925
-0.000114023
-0.0011847
-0.00177916
-0.00225355
-0.00271254
-0.00279846
-0.00295031
-0.00289104
-0.00225851
-0.00161705
-0.000588735
0.000231922
8.15324e-05
0.00106536
0.000696471
0.00051928
0.00101285
0.000482029
0.000518791
-0.000175074
-0.000109971
-0.00118333
-0.00177891
-0.00225274
-0.00271846
-0.00280627
-0.00297825
-0.00292626
-0.00234464
-0.0017453
-0.000843199
-0.000110894
9.12893e-05
0.00105814
0.000698327
0.00051564
0.00100873
0.000472718
0.000517792
-0.000180238
-0.000106781
-0.00117994
-0.0017811
-0.00224887
-0.00272788
-0.00281293
-0.00301071
-0.00296782
-0.00243771
-0.00188964
-0.00110386
-0.000456361
0.000101474
0.00105056
0.00070038
0.000511667
0.00100466
0.000463357
0.000516452
-0.000184145
-0.000104754
-0.00117412
-0.00178614
-0.0022428
-0.00274077
-0.0028196
-0.00304624
-0.0030182
-0.00253735
-0.00204995
-0.0013715
-0.000802859
0.0001121
0.00104256
0.000702655
0.000507368
0.0010006
0.000454076
0.000514628
-0.000186464
-0.000104235
-0.00116543
-0.00179425
-0.00223414
-0.00275665
-0.002828
-0.00308332
-0.0030793
-0.00264433
-0.00222476
-0.00164741
-0.00114961
0.000123183
0.00103414
0.000705166
0.000502778
0.000996488
0.000445038
0.000512113
-0.000186801
-0.000105575
-0.00115356
-0.0018055
-0.00222341
-0.00277447
-0.00284013
-0.00312087
-0.00315222
-0.00276018
-0.00241193
-0.00193265
-0.00149658
0.000134724
0.00102529
0.000707913
0.000497952
0.000992231
0.000436433
0.000508691
-0.00018478
-0.000109061
-0.0011383
-0.00181976
-0.00221146
-0.00279264
-0.00285788
-0.00315872
-0.00323724
-0.0028871
-0.00260945
-0.00222747
-0.00184452
0.000146709
0.00101602
0.000710881
0.000492955
0.000987712
0.000428502
0.000504144
-0.000180056
-0.00011491
-0.00111965
-0.00183658
-0.00219952
-0.00280941
-0.00288259
-0.00319725
-0.00333364
-0.00302766
-0.00281625
-0.00253132
-0.00219497
0.000159114
0.00100637
0.000714034
0.000487891
0.000982782
0.000421518
0.000498225
-0.000172296
-0.000123181
-0.00109792
-0.00185502
-0.0021891
-0.00282334
-0.00291503
-0.00323739
-0.00344
-0.00318418
-0.00303247
-0.0028431
-0.00254991
0.000171893
0.000996426
0.000717308
0.000482898
0.000977275
0.00041574
0.000490716
-0.000161291
-0.000133651
-0.00107383
-0.00187372
-0.00218137
-0.00283392
-0.00295565
-0.00328094
-0.00355467
-0.00335824
-0.0032592
-0.00316148
-0.00291116
0.000184969
0.000986329
0.000720625
0.00047811
0.000971015
0.000411383
0.000481535
-0.000147123
-0.000145785
-0.00104822
-0.00189134
-0.0021771
-0.00283886
-0.00300459
-0.00333037
-0.0036762
-0.00355046
-0.00349806
-0.00348515
-0.00327999
0.000198226
0.000976266
0.000723904
0.000473658
0.000963876
0.000408585
0.000470734
-0.000130156
-0.000158785
-0.00102189
-0.00190682
-0.00217696
-0.00284124
-0.00306149
-0.00338856
-0.00380373
-0.0037602
-0.00375072
-0.00381314
-0.0036566
0.000211504
0.000966474
0.000727087
0.000469619
0.000955811
0.000407388
0.000458538
-0.000110881
-0.00017187
-0.000995373
-0.00191935
-0.00218162
-0.00284139
-0.00312558
-0.0034585
-0.00393715
-0.00398562
-0.00401847
-0.00414498
-0.00403995
0.000224614
0.000957217
0.000730126
0.000466032
0.000946816
0.000407654
0.000445401
-8.97495e-05
-0.000184422
-0.000969046
-0.00192864
-0.0021917
-0.00284026
-0.00319585
-0.00354297
-0.00407729
-0.00422407
-0.00430171
-0.00448081
-0.00442802
0.000237355
0.000948809
0.000732995
0.000462874
0.000937041
0.000408975
0.00043182
-6.6984e-05
-0.000195806
-0.000943123
-0.00193448
-0.00220776
-0.00283997
-0.00327133
-0.00364388
-0.0042256
-0.00447255
-0.00459977
-0.00482128
-0.00481845
0.000249449
0.000941585
0.000735821
0.000459945
0.0009268
0.000410811
0.000418117
-4.25623e-05
-0.000205504
-0.000917737
-0.00193676
-0.00223058
-0.00284255
-0.00335144
-0.00376194
-0.00438358
-0.00472807
-0.00491074
-0.00516707
-0.00520898
0.000260595
0.000935758
0.000738859
0.000456949
0.000916555
0.000412869
0.000404515
-1.63194e-05
-0.000213335
-0.000892247
-0.00193534
-0.00226132
-0.00285118
-0.00343556
-0.00389664
-0.00455238
-0.004988
-0.00523178
-0.00551847
-0.00559782
0.000270494
0.000931484
0.000742561
0.0004534
0.000906818
0.000415181
0.000390968
1.20294e-05
-0.000218798
-0.000869739
-0.00193019
-0.00230071
-0.00286982
-0.00352299
-0.00404594
-0.00473251
-0.00525063
-0.00555988
-0.00587514
-0.00598359
0.000278869
0.000928903
0.000747629
0.000448698
0.000897853
0.000417875
0.000376807
4.29008e-05
-0.000223228
-0.000851132
-0.00192183
-0.00234851
-0.00290209
-0.00361358
-0.00420635
-0.00492359
-0.00551507
-0.00589234
-0.00623602
-0.00636518
0.000285573
0.000927831
0.000754793
0.000442554
0.000889685
0.000421488
0.00036097
7.64287e-05
-0.000225028
-0.000838494
-0.00191166
-0.00240347
-0.00295004
-0.00370823
-0.00437403
-0.00512424
-0.00578077
-0.00622696
-0.00659948
-0.00674161
0.000290544
0.00092772
0.000765021
0.000434871
0.000881802
0.000427069
0.000342677
0.000111939
-0.000223504
-0.000833553
-0.00190194
-0.0024633
-0.00301392
-0.00380862
-0.00454609
-0.00533259
-0.00604722
-0.00656154
-0.00696346
-0.00711195
0.000293808
0.00092779
0.000779388
0.000425732
0.000873026
0.00043572
0.000321748
0.000147661
-0.000217765
-0.000837551
-0.0018957
-0.00252581
-0.00309293
-0.00391632
-0.00472101
-0.00554681
-0.0063139
-0.0068938
-0.00732575
-0.00747538
0.00029557
0.00092695
0.000798504
0.000416793
0.000861832
0.000448201
0.000298756
0.000180987
-0.0002071
-0.000850712
-0.00189644
-0.00258914
-0.00318413
-0.00403195
-0.00489824
-0.00576547
-0.00658069
-0.00722196
-0.00768437
-0.00783145
0.000296202
0.000924062
0.000822511
0.000409857
0.000846881
0.000464472
0.000274731
0.000208808
-0.000191845
-0.000873261
-0.00190743
-0.00265225
-0.00328284
-0.00415491
-0.00507753
-0.00598746
-0.00684747
-0.00754474
-0.00803754
-0.0081799
0.000296248
0.000918149
0.000850688
0.000407147
0.000827765
0.000483765
0.000250434
0.00022834
-0.000173273
-0.000905686
-0.00193143
-0.00271616
-0.00338441
-0.00428323
-0.00525836
-0.00621166
-0.00711328
-0.00786106
-0.00838364
-0.00852036
0.000296306
0.000908437
0.000881473
0.000410725
0.000804874
0.000504924
0.000226291
0.000237376
-0.000152931
-0.000940264
-0.00196956
-0.00278352
-0.00348661
-0.00441418
-0.00543957
-0.00643687
-0.0073768
-0.00816984
-0.0087213
-0.00885241
0.000296959
0.000894523
0.000912854
0.000421927
0.000779189
0.000526773
0.000202771
0.000234952
-0.000132859
-0.000972992
-0.00202114
-0.00285776
-0.00358999
-0.00454535
-0.00561943
-0.00666147
-0.00763661
-0.00846982
-0.00904914
-0.00917547
0.00029867
0.000876145
0.000942771
0.000441535
0.000752108
0.000547951
0.000180939
0.000217203
-0.000116317
-0.00100154
-0.00208258
-0.00294047
-0.00369616
-0.00467588
-0.00579634
-0.00688361
-0.00789125
-0.00875944
-0.00936525
-0.00948847
0.000301657
0.000853311
0.000969511
0.000469655
0.000725019
0.000567296
0.000162194
0.00018298
-0.000107966
-0.00102329
-0.00214774
-0.00303048
-0.00380599
-0.00480623
-0.00596963
-0.00710172
-0.00813958
-0.00903731
-0.00966751
-0.00978983
0.000306011
0.000826465
0.000991636
0.000505397
0.000698917
0.000584009
0.0001474
0.000131662
-0.000115451
-0.00103977
-0.00221032
-0.00312562
-0.00391882
-0.0049364
-0.00613907
-0.00731473
-0.00838087
-0.00930245
-0.00995388
-0.0100775
0.000311974
0.000796085
0.0010076
0.000547608
0.000674439
0.000596616
0.000137295
6.77154e-05
-0.000142293
-0.00105531
-0.00226692
-0.00322178
-0.00403262
-0.00506521
-0.00630406
-0.00752204
-0.0086147
-0.00955429
-0.0102226
-0.0103492
0.000319851
0.000762647
0.0010157
0.000594973
0.000651896
0.000601058
0.000132917
-8.25383e-07
-0.000189435
-0.00107738
-0.00231857
-0.00331483
-0.00414512
-0.00519058
-0.00646294
-0.00772266
-0.00884056
-0.00979245
-0.0104719
-0.0106021
0.000329603
0.000725168
0.00101419
0.000646278
0.000631468
0.000594654
0.00013476
-6.70062e-05
-0.000256676
-0.00111258
-0.0023675
-0.00340393
-0.00425439
-0.00530983
-0.00661266
-0.00791418
-0.00905728
-0.0100167
-0.010701
-0.0108335
0.000340921
0.000689613
0.00100168
0.000698562
0.000614775
0.000574116
0.000142404
-0.000121372
-0.000337573
-0.0011629
-0.00241881
-0.00349071
-0.0043601
-0.00542077
-0.00674937
-0.00809277
-0.00926311
-0.0102274
-0.0109098
-0.0110415
0.000353243
0.000654963
0.000977364
0.000748156
0.000606274
0.000538251
0.000141425
-0.000162983
-0.000419139
-0.00122639
-0.00247773
-0.00357675
-0.00446289
-0.00552255
-0.00686953
-0.0082538
-0.00945514
-0.0104242
-0.0110989
-0.011225
0.000365699
0.000622536
0.000941268
0.000790213
0.000608617
0.000488349
0.000121517
-0.00019304
-0.000489775
-0.00129742
-0.00254522
-0.00366591
-0.0045638
-0.00561493
-0.00697059
-0.00839268
-0.00962928
-0.0106056
-0.0112685
-0.0113832
0.000377283
0.000594028
0.00089454
0.000818866
0.000620907
0.000432143
7.80879e-05
-0.00022168
-0.000544972
-0.00136363
-0.00261661
-0.00376144
-0.00466588
-0.00569885
-0.00705108
-0.00850511
-0.00978027
-0.0107688
-0.0114182
-0.0115163
0.000386944
0.000569923
0.000839413
0.000828811
0.000639138
0.000379919
1.24569e-05
-0.000265554
-0.000587509
-0.00141338
-0.00268555
-0.00386158
-0.00477346
-0.00577762
-0.00711096
-0.00858701
-0.00990146
-0.0109079
-0.0115457
-0.0116235
0.000393535
0.000549628
0.000779429
0.000816934
0.000657593
0.000337526
-7.17885e-05
-0.000334876
-0.00062458
-0.00144177
-0.00273972
-0.00395869
-0.00488843
-0.00585714
-0.00715324
-0.00863609
-0.00998646
-0.011016
-0.0116463
-0.0117025
0.000396298
0.000532181
0.00071858
0.000782165
0.000667433
0.000307506
-0.000164712
-0.00043153
-0.000673014
-0.00145314
-0.00276677
-0.00404351
-0.0050058
-0.00594239
-0.00718388
-0.00865283
-0.0100301
-0.0110855
-0.0117136
-0.0117492
0.00039457
0.000521236
0.000660212
0.000726369
0.000658505
0.000287263
-0.000253304
-0.000551072
-0.000747925
-0.0014565
-0.00276284
-0.00410229
-0.00511433
-0.00603316
-0.00720953
-0.00864083
-0.0100293
-0.0111088
-0.0117395
-0.0117573
0.00038763
0.000504667
0.000605406
0.000653734
0.000624462
0.000270742
-0.000328157
-0.000687323
-0.0008549
-0.00146788
-0.00273387
-0.00412325
-0.00520268
-0.00612185
-0.00723401
-0.0086065
-0.00998449
-0.0110801
-0.0117156
-0.0117193
0.000375369
0.00048436
0.000553497
0.000569439
0.000563577
0.000248432
-0.000386699
-0.000828584
-0.000993142
-0.00150341
-0.00268945
-0.00410327
-0.00525671
-0.0061951
-0.0072545
-0.00855516
-0.00989948
-0.0109964
-0.0116344
-0.0116269
0.000357906
0.000458602
0.00050279
0.000479117
0.000477327
0.000209399
-0.000433575
-0.000959397
-0.00115491
-0.00157389
-0.00264615
-0.00404937
-0.00526538
-0.0062401
-0.00726101
-0.00848681
-0.00977813
-0.0108578
-0.0114904
-0.0114722
0.000335074
0.000426027
0.000450692
0.000387235
0.000369672
0.000146205
-0.000477514
-0.00107161
-0.00132818
-0.00168163
-0.00262191
-0.00397231
-0.00522752
-0.00624371
-0.00723958
-0.00839492
-0.00962081
-0.0106654
-0.0112812
-0.01125
0.000306717
0.000385744
0.000394527
0.000295408
0.00024575
5.61852e-05
-0.000526963
-0.00116768
-0.00149863
-0.00181843
-0.00262886
-0.00388852
-0.00515162
-0.00619897
-0.0071786
-0.00826829
-0.00942197
-0.0104177
-0.0110056
-0.0109574
0.00027257
0.000337225
0.000331701
0.000203399
0.000112053
-6.03995e-05
-0.000590312
-0.00125268
-0.00165759
-0.00197333
-0.00267063
-0.00381453
-0.0050482
-0.00610946
-0.00707063
-0.00809496
-0.00917092
-0.0101075
-0.0106589
-0.0105902
0.000232325
0.000280588
0.000260065
0.000108998
-2.54592e-05
-0.00019879
-0.000675776
-0.0013336
-0.00180261
-0.00213602
-0.00274265
-0.00376176
-0.00493159
-0.00598242
-0.00691577
-0.00786802
-0.00885585
-0.00972143
-0.0102284
-0.0101378
0.000185292
0.000216037
0.000178935
9.72077e-06
-0.000164612
-0.000352087
-0.000786499
-0.00142033
-0.00193498
-0.00229812
-0.00283684
-0.00373545
-0.00481614
-0.00582818
-0.00671919
-0.00758719
-0.00846975
-0.0092455
-0.00969537
-0.00958198
0.000130596
0.000143636
8.83086e-05
-9.60269e-05
-0.000305496
-0.000514722
-0.000918925
-0.00152119
-0.00206112
-0.00245535
-0.00294614
-0.00373381
-0.00471208
-0.00565922
-0.00648859
-0.0072578
-0.0080131
-0.00867121
-0.0090415
-0.0088994
6.74927e-05
6.34604e-05
-1.13637e-05
-0.000209506
-0.000448695
-0.000683253
-0.00106775
-0.00163861
-0.0021891
-0.00260871
-0.00306574
-0.00375199
-0.00462204
-0.00548485
-0.00623233
-0.00688621
-0.00749028
-0.00799605
-0.00825322
-0.00806669
-4.58165e-06
-2.47815e-05
-0.000118835
-0.000330774
-0.000595457
-0.000855741
-0.00122893
-0.00177075
-0.00232302
-0.00276171
-0.00319354
-0.00378762
-0.00454356
-0.00530697
-0.00595499
-0.00647663
-0.00690502
-0.0072222
-0.00732644
-0.00707291
-8.57163e-05
-0.000121413
-0.000233429
-0.000458636
-0.000746164
-0.00103156
-0.00139962
-0.00191507
-0.00246295
-0.00291608
-0.00332847
-0.00383894
-0.00447551
-0.00512326
-0.00565508
-0.00602882
-0.00626245
-0.00636073
-0.00627949
-0.00593772
-0.000175607
-0.000226197
-0.000355105
-0.000591838
-0.000899743
-0.0012101
-0.00157788
-0.00206932
-0.0026072
-0.00307019
-0.00346733
-0.0039021
-0.00441674
-0.00493163
-0.00532679
-0.00553828
-0.00556826
-0.00543788
-0.0051538
-0.00470834
-0.000273846
-0.000338365
-0.000483514
-0.000729659
-0.00105453
-0.0013895
-0.00176156
-0.00223157
-0.00275368
-0.00321954
-0.00360323
-0.00396996
-0.00436202
-0.0047279
-0.00496319
-0.00499618
-0.00481883
-0.0044685
-0.00399869
-0.00347059
-0.000379763
-0.000456845
-0.00061781
-0.000871583
-0.001209
-0.00156682
-0.00194703
-0.00239908
-0.00289987
-0.00335878
-0.00372643
-0.00403037
-0.00430145
-0.00450601
-0.00456198
-0.00440295
-0.00402042
-0.00346991
-0.00285462
-0.00230667
-0.000492468
-0.000580408
-0.000756342
-0.00101709
-0.00136206
-0.00173857
-0.00212936
-0.00256711
-0.00304227
-0.00348297
-0.00382661
-0.00406888
-0.00422136
-0.0042604
-0.00412933
-0.003778
-0.00321609
-0.00252315
-0.00183236
-0.00129968
-0.000610768
-0.000707574
-0.000896981
-0.00116497
-0.00151305
-0.00190205
-0.00230269
-0.00272881
-0.00317558
-0.00358662
-0.00389537
-0.00407197
-0.00410897
-0.00398902
-0.00368064
-0.00316587
-0.00247511
-0.0016965
-0.000972426
-0.000476823
-0.000733021
-0.000836854
-0.00103732
-0.00131275
-0.00166123
-0.00205545
-0.00246145
-0.00287634
-0.00329269
-0.00366425
-0.00392609
-0.00403199
-0.00396152
-0.00370455
-0.00325322
-0.00261612
-0.00183647
-0.00100949
-0.000277764
0.000174223
-0.00085706
-0.000966557
-0.00117503
-0.00145725
-0.0018048
-0.00219732
-0.00260166
-0.00300245
-0.00338598
-0.00371187
-0.00391912
-0.00395508
-0.00379325
-0.00342946
-0.00287272
-0.00214844
-0.00131146
-0.000459455
0.000263289
0.000673567
-0.000980291
-0.00109441
-0.00130803
-0.00159515
-0.00194085
-0.00232673
-0.00272193
-0.00310272
-0.00344968
-0.00372701
-0.00387968
-0.00385517
-0.00362354
-0.00318175
-0.00254886
-0.00176359
-0.000891813
-3.44721e-05
0.000668508
0.00103744
-0.00109985
-0.00121767
-0.00143407
-0.00172319
-0.00206592
-0.00244234
-0.00282333
-0.00317894
-0.00348365
-0.00370922
-0.00381112
-0.00373991
-0.00346216
-0.00297187
-0.002291
-0.00146504
-0.000569396
0.000286776
0.000961836
0.00128418
-0.00121277
-0.00133327
-0.00155052
-0.00183905
-0.00217619
-0.00254144
-0.00290647
-0.00323817
-0.00350045
-0.00366622
-0.00371532
-0.00360678
-0.00330803
-0.00280499
-0.00210863
-0.00126724
-0.00036145
0.000496718
0.00116247
0.00145999
-0.00131546
-0.001438
-0.00165475
-0.00194053
-0.00226964
-0.00262043
-0.00296861
-0.00328116
-0.00351609
-0.00363387
-0.0036121
-0.00344714
-0.0031256
-0.00263491
-0.00197593
-0.00117641
-0.000303415
0.000536045
0.00118859
0.00148103
-0.0014035
-0.0015285
-0.00174413
-0.00202583
-0.00234688
-0.00267922
-0.00300628
-0.00329936
-0.00352707
-0.00364262
-0.00358355
-0.0033377
-0.00291654
-0.0023425
-0.00165239
-0.000897527
-0.000141527
0.000539121
0.00103986
0.00121636
-0.00147306
-0.0016002
-0.00181539
-0.00209449
-0.00240851
-0.00272802
-0.00302797
-0.0032812
-0.00347676
-0.00361006
-0.00363538
-0.00349114
-0.0031408
-0.0025683
-0.00177937
-0.000820846
0.000215864
0.00119108
0.00193312
0.00222999
-0.00151852
-0.00164846
-0.00186625
-0.002145
-0.00245631
-0.0027764
-0.00307007
-0.00330144
-0.0034302
-0.00342314
-0.00329712
-0.00306199
-0.00270562
-0.0022225
-0.00163199
-0.000967732
-0.000280741
0.000348893
0.000806257
0.000945465
0.00862334
0.00382964
-0.00342261
-0.00858204
-0.00964073
-0.00837174
-0.00686717
-0.00581884
-0.00519833
-0.00485094
-0.00466685
-0.00458172
-0.0045567
-0.00456775
-0.00459762
-0.00463107
-0.00465646
-0.00466958
-0.00467281
-0.0046701
-0.0046635
-0.00465442
-0.00464656
-0.00464463
-0.00465033
-0.00466212
-0.00467835
-0.00469879
-0.00472266
-0.00474735
-0.00476998
-0.00478912
-0.00480466
-0.00481695
-0.00482674
-0.00483553
-0.00484516
-0.00485702
-0.0048716
-0.00488842
-0.00490657
-0.00492526
-0.00494405
-0.00496282
-0.00498164
-0.0050006
-0.00501988
-0.00503972
-0.00506045
-0.0050822
-0.00510432
-0.00512571
-0.00514541
-0.00516339
-0.0051808
-0.00519906
-0.00521857
-0.00523856
-0.00525754
-0.00527449
-0.00528953
-0.00530367
-0.00531809
-0.00533351
-0.00534953
-0.00536475
-0.00537775
-0.0053884
-0.00539816
-0.00540869
-0.00542003
-0.00543041
-0.00543794
-0.00544245
-0.00544536
-0.00544811
-0.00545049
-0.00545101
-0.00544836
-0.00544298
-0.0054363
-0.00542924
-0.00542094
-0.00541022
-0.00539689
-0.00538227
-0.00536703
-0.00535074
-0.00533219
-0.00531155
-0.00528943
-0.00526635
-0.00524154
-0.00521484
-0.00518636
-0.00515687
-0.00512601
-0.00509378
-0.00506006
-0.00502552
-0.00499006
-0.00495382
-0.0049166
-0.00487872
-0.00484015
-0.00480103
-0.00476138
-0.00472119
-0.00468054
-0.00463921
-0.00459754
-0.00455519
-0.00451266
-0.00446924
-0.00442563
-0.00438108
-0.0043365
-0.00429093
-0.00424525
-0.00419856
-0.00415171
-0.00410389
-0.00405571
-0.00400664
-0.00395702
-0.00390673
-0.00385569
-0.00380426
-0.00375193
-0.00369941
-0.00364588
-0.00359224
-0.00353754
-0.00348266
-0.00342681
-0.00337059
-0.00331361
-0.00325604
-0.00319796
-0.00313914
-0.00308001
-0.00302012
-0.00295994
-0.00289916
-0.00283792
-0.00277634
-0.00271407
-0.00265167
-0.00258842
-0.00252501
-0.00246087
-0.00239625
-0.00233127
-0.0022653
-0.00219943
-0.00213218
-0.00206516
-0.00199687
-0.00192837
-0.00185927
-0.00178912
-0.00171918
-0.0016476
-0.00157639
-0.00150385
-0.00143084
-0.00135773
-0.00128276
-0.00120885
-0.00113244
-0.00105685
-0.000979896
-0.000901822
-0.00082471
-0.000744233
-0.000666255
-0.000584427
-0.000504346
-0.000422116
-0.000339406
-0.000256618
-0.000171852
-8.76613e-05
-1.46531e-06
8.44851e-05
0.000172193
0.000259843
0.000349075
0.000438848
0.000529299
0.000621291
0.00071375
0.000806899
0.000902096
0.000996965
0.00109256
0.00119039
0.0012848
0.00137395
0.00146015
0.00789718
0.00364614
-0.00334565
-0.00844499
-0.0095591
-0.00833314
-0.00684311
-0.00580196
-0.00518616
-0.00484165
-0.0046593
-0.0045753
-0.00455108
-0.00456273
-0.00459309
-0.00462696
-0.00465272
-0.00466616
-0.00466968
-0.00466724
-0.00466089
-0.00465202
-0.00464436
-0.0046426
-0.00464846
-0.00466038
-0.00467673
-0.00469726
-0.00472122
-0.00474597
-0.00476867
-0.00478787
-0.00480347
-0.00481581
-0.00482566
-0.0048345
-0.00484417
-0.00485608
-0.00487069
-0.00488754
-0.00490571
-0.00492443
-0.00494326
-0.00496205
-0.0049809
-0.00499989
-0.0050192
-0.00503906
-0.00505981
-0.00508158
-0.00510372
-0.00512514
-0.00514486
-0.00516286
-0.00518029
-0.00519856
-0.00521809
-0.0052381
-0.0052571
-0.00527407
-0.00528912
-0.00530328
-0.00531772
-0.00533315
-0.00534918
-0.00536442
-0.00537744
-0.00538811
-0.00539787
-0.00540841
-0.00541977
-0.00543016
-0.0054377
-0.00544223
-0.00544515
-0.00544791
-0.0054503
-0.00545083
-0.00544819
-0.00544282
-0.00543615
-0.0054291
-0.00542081
-0.0054101
-0.00539678
-0.00538216
-0.00536693
-0.00535064
-0.0053321
-0.00531147
-0.00528935
-0.00526628
-0.00524148
-0.00521478
-0.0051863
-0.00515681
-0.00512595
-0.00509373
-0.00506001
-0.00502548
-0.00499002
-0.00495379
-0.00491657
-0.00487869
-0.00484012
-0.004801
-0.00476136
-0.00472116
-0.00468052
-0.00463919
-0.00459752
-0.00455518
-0.00451265
-0.00446923
-0.00442562
-0.00438107
-0.00433649
-0.00429093
-0.00424525
-0.00419856
-0.0041517
-0.00410388
-0.00405571
-0.00400664
-0.00395702
-0.00390673
-0.00385569
-0.00380426
-0.00375193
-0.00369941
-0.00364588
-0.00359224
-0.00353754
-0.00348266
-0.00342681
-0.00337059
-0.0033136
-0.00325604
-0.00319796
-0.00313914
-0.00308001
-0.00302012
-0.00295994
-0.00289916
-0.00283792
-0.00277634
-0.00271407
-0.00265167
-0.00258842
-0.00252501
-0.00246087
-0.00239625
-0.00233127
-0.0022653
-0.00219943
-0.00213218
-0.00206516
-0.00199687
-0.00192837
-0.00185927
-0.00178912
-0.00171918
-0.0016476
-0.00157639
-0.00150385
-0.00143084
-0.00135773
-0.00128276
-0.00120885
-0.00113244
-0.00105685
-0.000979897
-0.000901822
-0.00082471
-0.000744234
-0.000666255
-0.000584427
-0.000504346
-0.000422116
-0.000339405
-0.000256618
-0.000171852
-8.76612e-05
-1.46536e-06
8.44852e-05
0.000172193
0.000259843
0.000349075
0.000438848
0.000529299
0.000621291
0.00071375
0.000806899
0.000902096
0.000996965
0.00109256
0.00119039
0.0012848
0.00137395
0.00146015
0.00712914
0.00345795
-0.00317581
-0.00818596
-0.00941086
-0.0082746
-0.00681154
-0.00577793
-0.00516755
-0.00482758
-0.00464856
-0.00456687
-0.00454421
-0.00455694
-0.00458805
-0.00462247
-0.00464866
-0.00466246
-0.00466628
-0.00466412
-0.00465802
-0.00464939
-0.00464195
-0.00464039
-0.00464644
-0.00465853
-0.00467503
-0.0046957
-0.00471976
-0.00474461
-0.00476738
-0.00478664
-0.00480228
-0.00481468
-0.00482458
-0.00483347
-0.00484319
-0.00485515
-0.0048698
-0.00488668
-0.00490489
-0.00492363
-0.00494248
-0.0049613
-0.00498017
-0.0049992
-0.00501853
-0.00503841
-0.00505919
-0.00508098
-0.00510314
-0.00512457
-0.00514432
-0.00516234
-0.00517979
-0.00519808
-0.00521763
-0.00523765
-0.00525667
-0.00527365
-0.00528873
-0.0053029
-0.00531735
-0.0053328
-0.00534884
-0.00536409
-0.00537713
-0.00538781
-0.00539758
-0.00540814
-0.00541951
-0.00542992
-0.00543747
-0.00544201
-0.00544494
-0.00544771
-0.00545011
-0.00545065
-0.00544803
-0.00544267
-0.005436
-0.00542896
-0.00542068
-0.00540998
-0.00539667
-0.00538206
-0.00536683
-0.00535055
-0.00533202
-0.00531139
-0.00528927
-0.00526621
-0.00524141
-0.00521471
-0.00518624
-0.00515676
-0.0051259
-0.00509368
-0.00505997
-0.00502544
-0.00498998
-0.00495375
-0.00491654
-0.00487866
-0.00484009
-0.00480098
-0.00476134
-0.00472114
-0.0046805
-0.00463917
-0.00459751
-0.00455516
-0.00451263
-0.00446922
-0.0044256
-0.00438106
-0.00433648
-0.00429092
-0.00424524
-0.00419855
-0.00415169
-0.00410388
-0.00405571
-0.00400664
-0.00395701
-0.00390673
-0.00385568
-0.00380425
-0.00375193
-0.00369941
-0.00364588
-0.00359224
-0.00353753
-0.00348266
-0.00342681
-0.00337059
-0.0033136
-0.00325604
-0.00319796
-0.00313914
-0.00308001
-0.00302012
-0.00295994
-0.00289916
-0.00283792
-0.00277634
-0.00271407
-0.00265167
-0.00258842
-0.00252501
-0.00246087
-0.00239625
-0.00233127
-0.0022653
-0.00219943
-0.00213218
-0.00206516
-0.00199687
-0.00192837
-0.00185927
-0.00178912
-0.00171918
-0.0016476
-0.00157639
-0.00150385
-0.00143084
-0.00135773
-0.00128276
-0.00120885
-0.00113244
-0.00105685
-0.000979897
-0.000901822
-0.00082471
-0.000744233
-0.000666255
-0.000584427
-0.000504346
-0.000422117
-0.000339405
-0.000256618
-0.000171852
-8.76612e-05
-1.46539e-06
8.44852e-05
0.000172193
0.000259843
0.000349075
0.000438849
0.000529299
0.000621291
0.000713751
0.000806899
0.000902097
0.000996966
0.00109256
0.0011904
0.0012848
0.00137395
0.00146017
0.00640001
0.0032901
-0.00293743
-0.00784246
-0.00920367
-0.00819064
-0.00676602
-0.00574139
-0.00513828
-0.00480569
-0.0046325
-0.00455488
-0.00453497
-0.00454949
-0.00458176
-0.00461693
-0.00464366
-0.00465788
-0.00466206
-0.0046602
-0.0046544
-0.00464606
-0.00463891
-0.00463764
-0.00464396
-0.0046563
-0.00467304
-0.00469392
-0.00471815
-0.00474312
-0.00476599
-0.00478531
-0.004801
-0.00481345
-0.0048234
-0.00483235
-0.00484214
-0.00485417
-0.00486888
-0.00488581
-0.00490405
-0.00492282
-0.00494169
-0.00496052
-0.00497942
-0.00499847
-0.00501783
-0.00503776
-0.00505856
-0.00508037
-0.00510254
-0.00512398
-0.00514375
-0.0051618
-0.00517928
-0.00519759
-0.00521715
-0.00523718
-0.00525622
-0.00527322
-0.00528831
-0.0053025
-0.00531697
-0.00533243
-0.00534848
-0.00536375
-0.0053768
-0.0053875
-0.00539728
-0.00540786
-0.00541924
-0.00542966
-0.00543722
-0.00544177
-0.00544472
-0.00544749
-0.00544991
-0.00545047
-0.00544785
-0.0054425
-0.00543584
-0.00542881
-0.00542054
-0.00540985
-0.00539654
-0.00538194
-0.00536672
-0.00535045
-0.00533192
-0.0053113
-0.00528919
-0.00526613
-0.00524134
-0.00521465
-0.00518618
-0.0051567
-0.00512585
-0.00509363
-0.00505992
-0.0050254
-0.00498994
-0.00495371
-0.0049165
-0.00487862
-0.00484006
-0.00480095
-0.00476131
-0.00472112
-0.00468048
-0.00463915
-0.00459749
-0.00455514
-0.00451262
-0.0044692
-0.00442559
-0.00438105
-0.00433647
-0.00429091
-0.00424523
-0.00419854
-0.00415169
-0.00410387
-0.0040557
-0.00400663
-0.00395701
-0.00390672
-0.00385568
-0.00380425
-0.00375193
-0.0036994
-0.00364587
-0.00359224
-0.00353753
-0.00348266
-0.00342681
-0.00337059
-0.0033136
-0.00325604
-0.00319796
-0.00313914
-0.00308001
-0.00302012
-0.00295994
-0.00289916
-0.00283792
-0.00277634
-0.00271407
-0.00265167
-0.00258842
-0.00252501
-0.00246087
-0.00239625
-0.00233127
-0.0022653
-0.00219943
-0.00213218
-0.00206516
-0.00199687
-0.00192836
-0.00185927
-0.00178912
-0.00171918
-0.0016476
-0.00157639
-0.00150385
-0.00143084
-0.00135773
-0.00128276
-0.00120885
-0.00113244
-0.00105685
-0.000979897
-0.000901821
-0.000824711
-0.000744233
-0.000666255
-0.000584427
-0.000504345
-0.000422117
-0.000339405
-0.000256619
-0.000171852
-8.76612e-05
-1.46542e-06
8.44853e-05
0.000172192
0.000259843
0.000349075
0.000438849
0.000529299
0.000621291
0.000713751
0.000806899
0.000902097
0.000996967
0.00109256
0.0011904
0.0012848
0.00137396
0.00146018
0.0057024
0.0031133
-0.00267981
-0.00746788
-0.00896985
-0.00809443
-0.00671313
-0.00569552
-0.00509904
-0.00477534
-0.00460996
-0.00453808
-0.00452214
-0.00453934
-0.00457331
-0.00460955
-0.004637
-0.00465177
-0.00465637
-0.00465487
-0.00464939
-0.00464142
-0.00463466
-0.00463379
-0.00464049
-0.00465322
-0.00467033
-0.00469156
-0.00471608
-0.00474127
-0.00476427
-0.00478368
-0.00479943
-0.00481192
-0.00482193
-0.00483098
-0.00484088
-0.00485301
-0.00486782
-0.00488483
-0.00490313
-0.00492193