/*--------------------------------*- C++ -*----------------------------------*\
| =========                 |                                                 |
| \\      /  F ield         | OpenFOAM: The Open Source CFD Toolbox           |
|  \\    /   O peration     | Version:  v2012                                 |
|   \\  /    A nd           | Website:  www.openfoam.com                      |
|    \\/     M anipulation  |                                                 |
\*---------------------------------------------------------------------------*/
FoamFile
{
    version     2.0;
    format      ascii;
    class       volScalarField;
    location    "3.6";
    object      p;
}
// * * * * * * * * * * * * * * * * * * * * * * * * * * * * * * * * * * * * * //

dimensions      [0 2 -2 0 0 0 0];


internalField   nonuniform List<scalar> 
17600
(
-4.30732e-11
-0.00231303
-0.00303746
-0.00371632
-0.00441539
-0.00443587
-0.0054643
-0.00534108
-0.00573382
-0.00615594
-0.00659019
-0.00673284
-0.00702847
-0.00685807
-0.00679208
-0.00624406
-0.00570107
-0.00428919
-0.00246257
0.00108103
3.57025e-07
-0.0023159
-0.00303579
-0.00371891
-0.00441267
-0.00443661
-0.00546306
-0.00534357
-0.00572869
-0.00615882
-0.00658676
-0.00673729
-0.00702535
-0.00687394
-0.00678691
-0.00626791
-0.00569178
-0.00434225
-0.00244961
0.000800292
-7.50603e-07
-0.00231979
-0.00303279
-0.00372274
-0.00440787
-0.00443752
-0.00546159
-0.00534722
-0.00572419
-0.00616343
-0.00658215
-0.00674425
-0.00702106
-0.00688995
-0.00678014
-0.00629481
-0.00568124
-0.00440347
-0.00245052
0.000404264
-4.17007e-06
-0.00232423
-0.00302975
-0.00372634
-0.00440166
-0.00443773
-0.00546061
-0.0053513
-0.00571989
-0.00616847
-0.00657747
-0.00675217
-0.00701683
-0.00690635
-0.00677453
-0.00632181
-0.00567424
-0.00446332
-0.00248139
1.36087e-05
-9.85881e-06
-0.00232958
-0.00302661
-0.0037292
-0.00439405
-0.00443743
-0.00546017
-0.00535599
-0.00571553
-0.00617395
-0.00657256
-0.00676115
-0.00701241
-0.00692418
-0.00676906
-0.00635048
-0.00566969
-0.00452509
-0.00254347
-0.00035593
-1.75555e-05
-0.00233605
-0.00302299
-0.00373102
-0.00438533
-0.00443693
-0.00546011
-0.00536135
-0.00571085
-0.00617993
-0.00656733
-0.00677106
-0.00700761
-0.00694326
-0.00676352
-0.0063816
-0.00566797
-0.00459035
-0.00263505
-0.000702189
-2.68666e-05
-0.00234357
-0.00301872
-0.0037316
-0.00437585
-0.00443635
-0.00546016
-0.00536729
-0.00570573
-0.00618633
-0.00656182
-0.00678167
-0.00700271
-0.00696329
-0.00675861
-0.00641427
-0.00567126
-0.00465899
-0.00275428
-0.00102942
-3.73403e-05
-0.00235203
-0.00301375
-0.00373094
-0.00436586
-0.00443572
-0.00546012
-0.00537374
-0.00570012
-0.00619309
-0.00655611
-0.00679291
-0.00699803
-0.00698406
-0.00675516
-0.00644677
-0.00568225
-0.00472999
-0.00289959
-0.00134389
-4.85987e-05
-0.0023613
-0.00300812
-0.00372918
-0.0043555
-0.00443506
-0.00545989
-0.00538066
-0.00569401
-0.0062002
-0.00655033
-0.00680474
-0.00699386
-0.00700533
-0.006754
-0.00647854
-0.00570315
-0.00480271
-0.00306907
-0.00165185
-6.04083e-05
-0.00237125
-0.00300192
-0.00372653
-0.00434482
-0.00443438
-0.00545943
-0.00538801
-0.00568744
-0.00620762
-0.0065446
-0.00681704
-0.00699048
-0.00702668
-0.00675606
-0.00650904
-0.00573547
-0.00487736
-0.00325993
-0.00195877
-7.2662e-05
-0.00238177
-0.00299525
-0.00372322
-0.00433386
-0.00443368
-0.00545877
-0.00539576
-0.00568048
-0.0062153
-0.00653905
-0.00682959
-0.00698826
-0.00704755
-0.00676233
-0.0065379
-0.00578013
-0.00495531
-0.00346848
-0.0022688
-8.53236e-05
-0.00239277
-0.0029882
-0.00371935
-0.00432262
-0.00443297
-0.00545796
-0.00540382
-0.00567319
-0.00622311
-0.00653387
-0.00684207
-0.00698769
-0.00706736
-0.00677375
-0.00656509
-0.00583731
-0.00503908
-0.00369049
-0.00258447
-9.8381e-05
-0.00240415
-0.00298086
-0.003715
-0.00431114
-0.0044322
-0.00545702
-0.00541211
-0.00566566
-0.00623089
-0.00652932
-0.00685414
-0.00698931
-0.0070856
-0.00679106
-0.00659118
-0.00590637
-0.00513182
-0.00392202
-0.00290677
-0.000111825
-0.00241585
-0.00297329
-0.00371016
-0.00429948
-0.00443133
-0.00545602
-0.00542052
-0.00565803
-0.00623841
-0.00652574
-0.0068654
-0.00699358
-0.00710193
-0.00681469
-0.00661759
-0.00598586
-0.00523652
-0.00416018
-0.00323548
-0.000125649
-0.00242781
-0.00296557
-0.00370477
-0.00428771
-0.00443028
-0.00545501
-0.00542892
-0.00565048
-0.00624538
-0.00652345
-0.00687548
-0.00700098
-0.00711553
-0.00684455
-0.00664639
-0.00607407
-0.00535533
-0.00440339
-0.00356959
-0.000139848
-0.00243996
-0.00295778
-0.00369877
-0.00427591
-0.00442895
-0.00545412
-0.00543714
-0.00564324
-0.00625151
-0.00652275
-0.0068841
-0.00701197
-0.00712815
-0.00687992
-0.00667995
-0.0061698
-0.00548959
-0.00465091
-0.00390764
-0.000154427
-0.00245222
-0.00294999
-0.00369207
-0.00426421
-0.00442722
-0.00545348
-0.00544496
-0.00563654
-0.0062565
-0.00652389
-0.00689108
-0.00702666
-0.00714035
-0.00691971
-0.00672025
-0.00627272
-0.00563964
-0.00490249
-0.00424792
-0.000169399
-0.00246451
-0.00294229
-0.00368455
-0.00425277
-0.00442492
-0.00545326
-0.00545217
-0.00563062
-0.00626014
-0.00652705
-0.00689649
-0.00704473
-0.00715368
-0.00696299
-0.00676863
-0.00638308
-0.00580499
-0.00515817
-0.00458849
-0.000184787
-0.00247674
-0.00293478
-0.00367606
-0.00424175
-0.00442186
-0.0054537
-0.00545854
-0.00562569
-0.00626235
-0.00653227
-0.00690077
-0.00706526
-0.00716969
-0.00700962
-0.00682614
-0.00650143
-0.00598487
-0.00541834
-0.00492714
-0.000200621
-0.00248876
-0.00292759
-0.00366642
-0.00423137
-0.00441782
-0.00545497
-0.00546386
-0.00562194
-0.0062632
-0.0065394
-0.00690468
-0.00708705
-0.00718914
-0.00705999
-0.00689361
-0.00662859
-0.00617888
-0.00568389
-0.00526195
-0.000216947
-0.00250043
-0.00292087
-0.0036554
-0.00422187
-0.0044126
-0.00545721
-0.00546806
-0.00561917
-0.00626308
-0.00654812
-0.00690915
-0.00710922
-0.00721224
-0.00711482
-0.00697165
-0.00676542
-0.00638691
-0.00595628
-0.00559201
-0.000233821
-0.00251155
-0.0029148
-0.00364278
-0.00421354
-0.00440599
-0.00546047
-0.00547118
-0.00561721
-0.0062625
-0.00656003
-0.006915
-0.00713165
-0.0072391
-0.00717517
-0.00706089
-0.0069127
-0.00660862
-0.00623702
-0.00591783
-0.000251321
-0.00252185
-0.00290958
-0.00362831
-0.0042066
-0.00439787
-0.00546477
-0.00547331
-0.00561567
-0.00626203
-0.00656827
-0.00692279
-0.00715442
-0.00726944
-0.00724211
-0.0071623
-0.00707146
-0.00684344
-0.00652731
-0.00624135
-0.000269577
-0.00253101
-0.00290546
-0.00361173
-0.00420132
-0.00438822
-0.00547002
-0.0054747
-0.00561377
-0.00626254
-0.00657529
-0.0069325
-0.00717821
-0.0073025
-0.00731594
-0.00727706
-0.00724326
-0.00709153
-0.00682875
-0.00656592
-0.000288726
-0.00253867
-0.00290267
-0.00359285
-0.00419784
-0.00437708
-0.00547583
-0.00547618
-0.00561017
-0.00626501
-0.00658096
-0.00694373
-0.00720383
-0.00733753
-0.00739586
-0.00740544
-0.00742916
-0.00735398
-0.0071465
-0.00689706
-0.00030892
-0.0025444
-0.00290143
-0.00357151
-0.00419622
-0.00436468
-0.00548149
-0.00547909
-0.00560361
-0.00626977
-0.00658521
-0.00695573
-0.00723261
-0.00737456
-0.00747969
-0.00754429
-0.00762323
-0.00763104
-0.00749533
-0.00724515
-0.000330433
-0.00254766
-0.00290197
-0.00354764
-0.00419632
-0.00435151
-0.00548613
-0.00548458
-0.0055936
-0.00627656
-0.00658857
-0.00696677
-0.00726624
-0.00741514
-0.00756643
-0.00769168
-0.00782426
-0.00790962
-0.00785075
-0.00764373
-0.000353519
-0.00254796
-0.00290442
-0.0035213
-0.00419777
-0.00433843
-0.00548867
-0.0054935
-0.00557978
-0.00628471
-0.00659252
-0.00697508
-0.00730458
-0.00746065
-0.00765705
-0.00785679
-0.00804207
-0.008193
-0.00821408
-0.00805331
-0.000378451
-0.00254482
-0.00290873
-0.00349276
-0.00420003
-0.00432663
-0.00548788
-0.00550633
-0.00556223
-0.00629304
-0.0065995
-0.00698082
-0.00734887
-0.0075204
-0.00775616
-0.00803432
-0.00827642
-0.00848381
-0.00858
-0.0084645
-0.000405587
-0.00253768
-0.00291475
-0.00346236
-0.00420238
-0.00431723
-0.005483
-0.00552324
-0.00554207
-0.00630067
-0.00661285
-0.00698781
-0.00740432
-0.00759388
-0.00785927
-0.00821722
-0.00852582
-0.00878325
-0.00894286
-0.00887221
-0.000435206
-0.00252614
-0.00292198
-0.00343083
-0.00420397
-0.00431107
-0.00547373
-0.00554416
-0.00552099
-0.00630783
-0.00663667
-0.00699766
-0.00746457
-0.00768053
-0.00796477
-0.00839984
-0.00878711
-0.00909271
-0.0093024
-0.00927072
-0.000467585
-0.00250999
-0.00292948
-0.00339919
-0.00420421
-0.00430875
-0.00546029
-0.00556907
-0.00550148
-0.00631539
-0.00667171
-0.00700892
-0.00752497
-0.00778125
-0.00807611
-0.00857898
-0.00905512
-0.00941267
-0.00966005
-0.00965746
-0.000502871
-0.00248929
-0.00293627
-0.0033679
-0.00420264
-0.00431078
-0.00544349
-0.00559851
-0.00548766
-0.00632259
-0.00671634
-0.00702147
-0.00758112
-0.00789439
-0.00819759
-0.00875371
-0.00932384
-0.00974137
-0.0100172
-0.0100326
-0.000541045
-0.00246444
-0.00294128
-0.00333986
-0.00419893
-0.00431758
-0.00542519
-0.00563412
-0.00548315
-0.0063259
-0.00676812
-0.00703852
-0.00762951
-0.00801605
-0.00833281
-0.00892562
-0.00958818
-0.0100755
-0.0103758
-0.0103977
-0.000582069
-0.00243603
-0.00294346
-0.00330957
-0.00419309
-0.00432937
-0.00540793
-0.00567768
-0.00548763
-0.00632178
-0.00682373
-0.00706312
-0.00766986
-0.0081413
-0.00848386
-0.00909857
-0.00984514
-0.0104112
-0.0107367
-0.0107551
-0.000625663
-0.00240496
-0.00294193
-0.00327839
-0.00418589
-0.00434725
-0.00539343
-0.00572862
-0.00550105
-0.00630905
-0.0068803
-0.00709898
-0.00770438
-0.00826509
-0.00865018
-0.00927741
-0.0100942
-0.0107437
-0.0110993
-0.011107
-0.000671367
-0.00237234
-0.00293597
-0.00324592
-0.0041782
-0.00437389
-0.00538209
-0.00578291
-0.00552402
-0.00628871
-0.00693506
-0.0071487
-0.00773675
-0.00838317
-0.00882918
-0.00946656
-0.0103368
-0.0110685
-0.0114611
-0.0114545
-0.000718672
-0.00233894
-0.00292598
-0.00321219
-0.00416986
-0.00441061
-0.00537338
-0.00583658
-0.00555758
-0.00626342
-0.00698548
-0.00721254
-0.00777136
-0.0084928
-0.00901683
-0.00966857
-0.0105747
-0.0113816
-0.0118181
-0.011798
-0.000766827
-0.00230535
-0.00291373
-0.0031779
-0.00415996
-0.00445706
-0.00536807
-0.0058871
-0.00560226
-0.00623682
-0.00703394
-0.00728931
-0.00781319
-0.00859308
-0.00920749
-0.0098832
-0.0108102
-0.0116809
-0.0121667
-0.0121371
-0.000814976
-0.00227203
-0.00290076
-0.00314407
-0.00414744
-0.00451163
-0.00536748
-0.00593292
-0.00565808
-0.0062123
-0.00706727
-0.00737635
-0.00786693
-0.0086851
-0.00939481
-0.0101074
-0.0110455
-0.0119663
-0.0125035
-0.0124714
-0.000862479
-0.00223937
-0.00288819
-0.00311246
-0.00413125
-0.00457238
-0.00537337
-0.00597271
-0.00572338
-0.00619394
-0.00708758
-0.00746945
-0.00793554
-0.00877211
-0.00957359
-0.0103363
-0.0112819
-0.0122385
-0.012826
-0.0127994
-0.000908868
-0.00220731
-0.00288025
-0.00308576
-0.0041111
-0.00463742
-0.00538688
-0.00600517
-0.00579527
-0.00618592
-0.0070975
-0.00756301
-0.0080192
-0.00885854
-0.00974139
-0.0105649
-0.0115196
-0.0124992
-0.0131322
-0.0131185
-0.000953866
-0.00217509
-0.00287562
-0.00306757
-0.00408782
-0.00470515
-0.00540831
-0.00602989
-0.00587049
-0.00619077
-0.00710016
-0.00765178
-0.00811519
-0.0089482
-0.00989845
-0.0107891
-0.0117574
-0.0127496
-0.0134202
-0.0134253
-0.000997262
-0.00214167
-0.00287472
-0.00306201
-0.00406305
-0.00477633
-0.00543753
-0.00604776
-0.00594545
-0.0062093
-0.00709957
-0.00773251
-0.0082196
-0.00904328
-0.0100466
-0.0110059
-0.0119936
-0.0129903
-0.0136887
-0.0137152
-0.00103883
-0.00210564
-0.00287795
-0.00307338
-0.0040389
-0.00483545
-0.00547385
-0.00606065
-0.00601631
-0.00624021
-0.00709962
-0.00780405
-0.00832829
-0.00914422
-0.0101877
-0.0112128
-0.0122255
-0.0132216
-0.0139368
-0.0139842
-0.00107826
-0.0020664
-0.00288543
-0.00310461
-0.0040181
-0.00488355
-0.00551641
-0.00607077
-0.00607968
-0.00628062
-0.00710329
-0.00786658
-0.00843719
-0.00924977
-0.0103223
-0.011408
-0.0124505
-0.0134437
-0.0141651
-0.0142299
-0.00111553
-0.00202611
-0.00289727
-0.00315291
-0.00400315
-0.00492254
-0.00556491
-0.00608162
-0.00613398
-0.00632686
-0.00711232
-0.00792125
-0.00854289
-0.00935762
-0.0104503
-0.0115898
-0.0126659
-0.0136567
-0.0143753
-0.0144509
-0.00115452
-0.00198828
-0.00290698
-0.00321223
-0.00399577
-0.00495325
-0.00561918
-0.00609783
-0.00617961
-0.00637521
-0.00712723
-0.00796976
-0.00864288
-0.00946486
-0.0105709
-0.0117571
-0.0128699
-0.0138607
-0.0145694
-0.0146475
-0.00119681
-0.00195988
-0.00291107
-0.00328053
-0.00399789
-0.00497553
-0.0056768
-0.00612272
-0.00621834
-0.00642164
-0.00714699
-0.00801341
-0.00873492
-0.00956794
-0.0106824
-0.0119088
-0.0130603
-0.0140552
-0.0147492
-0.0148205
-0.00123897
-0.00193274
-0.00292049
-0.00335829
-0.00401263
-0.00499038
-0.0057339
-0.00615745
-0.00625329
-0.00646231
-0.00716875
-0.00805316
-0.00881774
-0.00966331
-0.0107824
-0.0120426
-0.0132345
-0.0142386
-0.014916
-0.0149719
-0.00128385
-0.00191407
-0.0029269
-0.00344246
-0.00404198
-0.00499968
-0.00578639
-0.00620154
-0.00628853
-0.00649598
-0.0071887
-0.00808918
-0.00889176
-0.00974886
-0.0108675
-0.0121554
-0.0133884
-0.0144087
-0.0150712
-0.0151049
-0.00133583
-0.00190421
-0.0029285
-0.00352957
-0.0040877
-0.00500701
-0.00583204
-0.00625271
-0.00632718
-0.00652309
-0.00720206
-0.00811887
-0.0089573
-0.00982413
-0.010936
-0.0122431
-0.0135167
-0.0145616
-0.015215
-0.0152235
-0.00139411
-0.00190402
-0.00292495
-0.0036184
-0.00415062
-0.00501596
-0.00586869
-0.00630801
-0.00637114
-0.00654524
-0.00720498
-0.00813758
-0.00901316
-0.00988982
-0.0109879
-0.0123021
-0.0136122
-0.01469
-0.0153447
-0.0153299
-0.00145669
-0.00191556
-0.00292771
-0.003707
-0.00422974
-0.00502962
-0.0058946
-0.00636383
-0.00642151
-0.00656428
-0.00719506
-0.00813974
-0.00905508
-0.00994559
-0.0110245
-0.0123314
-0.013669
-0.0147846
-0.0154533
-0.0154236
-0.00152387
-0.00194017
-0.00293675
-0.00379433
-0.00432401
-0.00505254
-0.00591042
-0.00641527
-0.00647755
-0.00658233
-0.00717119
-0.00812013
-0.00907633
-0.00998769
-0.0110467
-0.0123327
-0.0136842
-0.0148355
-0.0155309
-0.0154991
-0.00159841
-0.0019797
-0.00295195
-0.00387922
-0.00443161
-0.00508907
-0.00591915
-0.00645766
-0.0065366
-0.0066023
-0.0071349
-0.00807466
-0.0090691
-0.0100083
-0.0110515
-0.0123074
-0.0136573
-0.0148373
-0.0155662
-0.0155468
-0.00168187
-0.00203408
-0.00297665
-0.00396161
-0.00455017
-0.00514181
-0.00592415
-0.0064875
-0.00659363
-0.00662548
-0.00708948
-0.00800127
-0.00902601
-0.00999797
-0.011033
-0.0122551
-0.013589
-0.0147871
-0.0155501
-0.0155555
-0.00177555
-0.00210364
-0.00301415
-0.00404283
-0.00467677
-0.00521171
-0.00592938
-0.00650348
-0.00664321
-0.00665087
-0.00703855
-0.00790054
-0.00894064
-0.00994654
-0.0109818
-0.0121716
-0.0134786
-0.0146835
-0.015478
-0.0155157
-0.00188089
-0.00219324
-0.00306577
-0.00412427
-0.00480864
-0.00529935
-0.00594017
-0.00650701
-0.0066808
-0.00667438
-0.00698308
-0.00777436
-0.00880799
-0.00984304
-0.0108857
-0.0120476
-0.0133227
-0.0145233
-0.0153441
-0.0154189
-0.00199877
-0.00229885
-0.00313859
-0.00420869
-0.0049441
-0.00540468
-0.00596107
-0.00650004
-0.00670186
-0.00668993
-0.00692155
-0.00762453
-0.00862626
-0.00967822
-0.0107316
-0.0118716
-0.0131132
-0.0143015
-0.0151427
-0.0152586
-0.0021323
-0.00242501
-0.00323146
-0.00429915
-0.00508225
-0.0055269
-0.00599628
-0.00648602
-0.00670403
-0.00669172
-0.00685096
-0.00745138
-0.00839412
-0.00944308
-0.0105042
-0.0116274
-0.0128365
-0.0140077
-0.0148647
-0.0150194
-0.00228521
-0.00257226
-0.0033466
-0.00439993
-0.00522303
-0.00566427
-0.0060497
-0.00647026
-0.0066871
-0.00667472
-0.0067665
-0.00725331
-0.00810892
-0.00912855
-0.0101859
-0.0112939
-0.0124736
-0.013624
-0.0144841
-0.0146794
-0.00245923
-0.00274199
-0.00348606
-0.00451633
-0.00536666
-0.00581398
-0.0061247
-0.00646086
-0.00665456
-0.00663671
-0.00666355
-0.0070278
-0.00776799
-0.00872448
-0.00975586
-0.0108418
-0.0119913
-0.013113
-0.0139789
-0.0142188
-0.00265545
-0.00293241
-0.0036556
-0.00465279
-0.0055144
-0.00597345
-0.00622331
-0.00646762
-0.00661647
-0.00658046
-0.00653992
-0.00677209
-0.00736802
-0.00821849
-0.00918745
-0.0102297
-0.0113393
-0.0124387
-0.0133154
-0.0136094
-0.00287837
-0.00314637
-0.00385432
-0.0048108
-0.00566825
-0.00614154
-0.00634355
-0.00649751
-0.00658676
-0.00651861
-0.00640177
-0.00648624
-0.00690173
-0.0075948
-0.00844987
-0.00940954
-0.0104631
-0.0115391
-0.0124393
-0.0128123
-0.00314751
-0.00338987
-0.00407189
-0.00498129
-0.00583165
-0.00631672
-0.00648222
-0.00655218
-0.00657437
-0.00647013
-0.00627043
-0.00617975
-0.00636194
-0.00682437
-0.00749528
-0.00830914
-0.00926352
-0.0103061
-0.0112555
-0.0117619
-0.003467
-0.0037199
-0.00429849
-0.00516436
-0.00600945
-0.00649478
-0.00663265
-0.00663118
-0.00658462
-0.0064456
-0.00619221
-0.00590939
-0.00577604
-0.00588131
-0.00622046
-0.00678034
-0.00754201
-0.00850999
-0.00955289
-0.0103114
-0.00378859
-0.0040171
-0.00462384
-0.00543287
-0.0062103
-0.00667229
-0.00678584
-0.00673317
-0.00662185
-0.00644326
-0.00619077
-0.00581835
-0.00534018
-0.00483667
-0.00447073
-0.00440149
-0.00471847
-0.00539101
-0.0063126
-0.00727223
-0.0041488
-0.00437269
-0.00499576
-0.00575449
-0.00643478
-0.00684381
-0.00693415
-0.00685773
-0.00670075
-0.00644455
-0.00613955
-0.00595299
-0.00560481
-0.00465277
-0.00347238
-0.00259254
-0.00212855
-0.00187254
-0.00161562
-0.00139704
-0.00460665
-0.00479201
-0.00538577
-0.00607883
-0.00666084
-0.00700096
-0.0070703
-0.00696763
-0.00682775
-0.0065112
-0.00555538
-0.00429631
-0.00316532
-0.00230878
-0.00163298
-0.000961331
-0.000204886
0.000589295
0.00124378
0.00142291
-0.0051611
-0.00528027
-0.00579408
-0.00639274
-0.0068665
-0.00711789
-0.00716812
-0.00692379
-0.00611282
-0.00510703
-0.00415154
-0.00332905
-0.00261936
-0.00189298
-0.00105614
-9.24825e-05
0.00094934
0.00193691
0.00264094
0.00271862
-0.00582479
-0.0058951
-0.00621662
-0.00661211
-0.00700114
-0.00708307
-0.00660185
-0.00587786
-0.00514843
-0.00449836
-0.00389579
-0.00321379
-0.002375
-0.00138866
-0.000290782
0.000880584
0.00205279
0.00309326
0.00377763
0.00375792
-0.00660679
-0.00670186
-0.00669478
-0.0066017
-0.00646631
-0.00625894
-0.00591371
-0.00546471
-0.00496794
-0.0043992
-0.00371366
-0.00286864
-0.0018598
-0.000724812
0.000492401
0.0017464
0.00295995
0.00399439
0.0046245
0.00451892
-0.0073527
-0.00735547
-0.00695513
-0.00648067
-0.00609579
-0.00581588
-0.00555871
-0.0052184
-0.00474611
-0.00412255
-0.00333615
-0.00239437
-0.00131444
-0.000120473
0.00114916
0.00243337
0.00364475
0.00464586
0.00522023
0.00504284
-0.00794331
-0.0078047
-0.00723082
-0.00652476
-0.00593833
-0.00553505
-0.00522528
-0.00487841
-0.00439531
-0.00374596
-0.00293025
-0.00195756
-0.000848305
0.000371986
0.00166011
0.00295234
0.00415642
0.00513219
0.00566423
0.00543144
-0.00841806
-0.00819324
-0.00750785
-0.00663735
-0.00586494
-0.00530597
-0.00490164
-0.004514
-0.00402884
-0.00338731
-0.00257246
-0.00159347
-0.000468791
0.000767453
0.00206754
0.00336444
0.00456212
0.00551778
0.00601633
0.00573994
-0.00882136
-0.00853533
-0.00773857
-0.00673936
-0.0058188
-0.00512269
-0.00462321
-0.00419213
-0.00370155
-0.00306832
-0.00226037
-0.00127918
-0.000147359
0.00109746
0.0024035
0.00370053
0.00489001
0.00582781
0.00629936
0.00598918
-0.00914516
-0.0088057
-0.00793339
-0.00683175
-0.00579605
-0.00499067
-0.00440812
-0.00393109
-0.00342494
-0.00279494
-0.00199512
-0.00101877
0.000114154
0.00136193
0.00266883
0.00396268
0.00514356
0.00606674
0.0065181
0.00618367
-0.00938684
-0.00901546
-0.00808641
-0.006914
-0.00580025
-0.00491639
-0.00426625
-0.00374175
-0.00320797
-0.00256318
-0.00175688
-0.000779922
0.000348792
0.00159112
0.00289234
0.00417847
0.00534906
0.00625952
0.00669588
0.00634444
-0.00953643
-0.00915448
-0.00820104
-0.00699424
-0.0058407
-0.00491513
-0.00422352
-0.00366257
-0.00310121
-0.00243624
-0.00161054
-0.000614468
0.000529303
0.00177823
0.00307679
0.00435387
0.00551308
0.00641343
0.00684251
0.00648605
0.00507292
0.000430087
-0.00667263
-0.0117708
-0.0128049
-0.0114899
-0.0099428
-0.00888357
-0.00828424
-0.00797334
-0.00782962
-0.00778965
-0.00781566
-0.00787882
-0.00795873
-0.00804222
-0.0081199
-0.00818711
-0.00824559
-0.00830059
-0.00835618
-0.0084132
-0.00847024
-0.00852651
-0.00858385
-0.00864552
-0.00871277
-0.00878381
-0.00885626
-0.00892947
-0.00900384
-0.00907921
-0.00915463
-0.00922924
-0.00930251
-0.00937402
-0.00944317
-0.0095099
-0.00957467
-0.00963811
-0.00970014
-0.00976019
-0.00981782
-0.00987338
-0.00992748
-0.0099805
-0.0100322
-0.0100823
-0.0101309
-0.0101782
-0.0102245
-0.0102697
-0.0103141
-0.0103576
-0.0104004
-0.0104425
-0.0104839
-0.0105247
-0.0105647
-0.0106037
-0.0106418
-0.010679
-0.0107155
-0.0107511
-0.0107857
-0.0108191
-0.0108517
-0.0108837
-0.0109152
-0.0109458
-0.0109758
-0.0110053
-0.0110345
-0.0110633
-0.0110916
-0.0111195
-0.0111472
-0.0111748
-0.0112025
-0.0112299
-0.011257
-0.0112841
-0.0113111
-0.0113383
-0.0113653
-0.011392
-0.0114184
-0.0114447
-0.0114707
-0.0114966
-0.0115222
-0.0115474
-0.0115724
-0.0115971
-0.0116216
-0.0116458
-0.0116698
-0.0116934
-0.0117168
-0.0117397
-0.0117624
-0.0117846
-0.0118067
-0.0118282
-0.0118494
-0.0118702
-0.0118907
-0.0119109
-0.0119307
-0.0119504
-0.0119698
-0.011989
-0.0120078
-0.0120265
-0.0120448
-0.0120632
-0.012081
-0.0120987
-0.0121157
-0.0121327
-0.0121493
-0.0121656
-0.0121816
-0.012197
-0.0122124
-0.0122271
-0.0122419
-0.012256
-0.0122702
-0.0122836
-0.0122972
-0.0123102
-0.012323
-0.0123353
-0.0123472
-0.0123591
-0.0123703
-0.0123816
-0.0123922
-0.0124031
-0.0124129
-0.0124228
-0.0124322
-0.0124414
-0.01245
-0.0124577
-0.0124657
-0.0124727
-0.0124803
-0.0124864
-0.0124932
-0.0124988
-0.0125046
-0.0125097
-0.012514
-0.0125184
-0.0125214
-0.0125256
-0.0125278
-0.0125308
-0.0125322
-0.0125342
-0.0125354
-0.0125355
-0.0125363
-0.0125353
-0.0125358
-0.0125337
-0.0125333
-0.012531
-0.012529
-0.0125266
-0.0125222
-0.0125195
-0.0125137
-0.0125104
-0.0125038
-0.0124982
-0.0124919
-0.0124836
-0.0124773
-0.0124665
-0.0124597
-0.0124484
-0.0124386
-0.0124281
-0.0124142
-0.0124042
-0.0123869
-0.0123749
-0.0123567
-0.0123405
-0.0123224
-0.0123003
-0.0122813
-0.012255
-0.0122302
-0.0122056
-0.0121728
-0.0121593
0.00435695
0.000245983
-0.00659794
-0.0116326
-0.0127214
-0.0114504
-0.00991796
-0.00886591
-0.00827148
-0.00796367
-0.00782187
-0.00778317
-0.00781008
-0.00787394
-0.0079544
-0.00803833
-0.00811639
-0.00818391
-0.00824264
-0.00829786
-0.00835365
-0.00841084
-0.00846804
-0.00852445
-0.00858191
-0.00864369
-0.00871104
-0.00878219
-0.00885472
-0.00892802
-0.00900247
-0.00907792
-0.0091534
-0.00922807
-0.0093014
-0.00937296
-0.00944217
-0.00950895
-0.00957376
-0.00963724
-0.00969931
-0.00975939
-0.00981706
-0.00987265
-0.00992678
-0.00997982
-0.0100315
-0.0100817
-0.0101303
-0.0101776
-0.0102239
-0.0102692
-0.0103136
-0.0103571
-0.0103999
-0.010442
-0.0104835
-0.0105243
-0.0105643
-0.0106033
-0.0106414
-0.0106786
-0.0107151
-0.0107508
-0.0107854
-0.0108188
-0.0108514
-0.0108834
-0.0109148
-0.0109455
-0.0109755
-0.011005
-0.0110342
-0.011063
-0.0110913
-0.0111192
-0.0111469
-0.0111746
-0.0112022
-0.0112297
-0.0112568
-0.0112839
-0.0113109
-0.0113381
-0.0113651
-0.0113918
-0.0114182
-0.0114445
-0.0114706
-0.0114964
-0.011522
-0.0115473
-0.0115723
-0.011597
-0.0116215
-0.0116456
-0.0116696
-0.0116932
-0.0117166
-0.0117395
-0.0117622
-0.0117845
-0.0118066
-0.0118281
-0.0118493
-0.0118701
-0.0118906
-0.0119108
-0.0119306
-0.0119503
-0.0119696
-0.0119889
-0.0120077
-0.0120264
-0.0120447
-0.0120631
-0.0120809
-0.0120986
-0.0121156
-0.0121326
-0.0121493
-0.0121656
-0.0121815
-0.0121969
-0.0122123
-0.012227
-0.0122419
-0.0122559
-0.0122701
-0.0122836
-0.0122972
-0.0123101
-0.0123229
-0.0123352
-0.0123472
-0.012359
-0.0123702
-0.0123815
-0.0123921
-0.012403
-0.0124128
-0.0124228
-0.0124321
-0.0124413
-0.01245
-0.0124577
-0.0124657
-0.0124727
-0.0124803
-0.0124864
-0.0124931
-0.0124987
-0.0125046
-0.0125096
-0.0125139
-0.0125183
-0.0125214
-0.0125255
-0.0125277
-0.0125308
-0.0125321
-0.0125342
-0.0125354
-0.0125355
-0.0125363
-0.0125352
-0.0125358
-0.0125337
-0.0125332
-0.012531
-0.012529
-0.0125265
-0.0125221
-0.0125195
-0.0125137
-0.0125103
-0.0125037
-0.0124982
-0.0124919
-0.0124836
-0.0124772
-0.0124665
-0.0124596
-0.0124484
-0.0124386
-0.012428
-0.0124142
-0.0124042
-0.0123869
-0.0123749
-0.0123567
-0.0123405
-0.0123224
-0.0123003
-0.0122812
-0.0122549
-0.0122302
-0.0122055
-0.0121728
-0.0121593
0.00359971
5.60153e-05
-0.0064332
-0.0113726
-0.0125703
-0.0113914
-0.00988669
-0.00884174
-0.00825228
-0.00794888
-0.00781047
-0.00777422
-0.00780287
-0.00786794
-0.00794927
-0.00803387
-0.00811245
-0.0081804
-0.00823947
-0.00829498
-0.008351
-0.00840838
-0.00846576
-0.00852233
-0.00857993
-0.00864183
-0.00870929
-0.00878054
-0.00885317
-0.00892656
-0.00900109
-0.00907662
-0.00915217
-0.00922691
-0.0093003
-0.00937192
-0.00944117
-0.009508
-0.00957285
-0.00963638
-0.00969848
-0.00975861
-0.0098163
-0.00987193
-0.00992608
-0.00997915
-0.0100309
-0.0100811
-0.0101297
-0.0101771
-0.0102234
-0.0102687
-0.0103131
-0.0103566
-0.0103994
-0.0104416
-0.010483
-0.0105238
-0.0105639
-0.0106029
-0.010641
-0.0106782
-0.0107148
-0.0107504
-0.010785
-0.0108185
-0.0108511
-0.0108831
-0.0109145
-0.0109452
-0.0109752
-0.0110047
-0.0110339
-0.0110627
-0.0110911
-0.011119
-0.0111467
-0.0111744
-0.011202
-0.0112294
-0.0112566
-0.0112836
-0.0113107
-0.0113379
-0.0113649
-0.0113916
-0.011418
-0.0114443
-0.0114704
-0.0114963
-0.0115218
-0.0115471
-0.0115721
-0.0115968
-0.0116213
-0.0116455
-0.0116695
-0.0116931
-0.0117165
-0.0117394
-0.0117621
-0.0117843
-0.0118064
-0.0118279
-0.0118492
-0.0118699
-0.0118905
-0.0119106
-0.0119305
-0.0119502
-0.0119695
-0.0119888
-0.0120076
-0.0120263
-0.0120446
-0.012063
-0.0120808
-0.0120985
-0.0121156
-0.0121325
-0.0121492
-0.0121655
-0.0121814
-0.0121969
-0.0122122
-0.0122269
-0.0122418
-0.0122558
-0.01227
-0.0122835
-0.0122971
-0.01231
-0.0123228
-0.0123352
-0.0123471
-0.0123589
-0.0123701
-0.0123815
-0.012392
-0.0124029
-0.0124128
-0.0124227
-0.0124321
-0.0124413
-0.0124499
-0.0124576
-0.0124656
-0.0124726
-0.0124802
-0.0124863
-0.0124931
-0.0124987
-0.0125045
-0.0125096
-0.0125139
-0.0125183
-0.0125213
-0.0125255
-0.0125277
-0.0125307
-0.0125321
-0.0125341
-0.0125353
-0.0125355
-0.0125362
-0.0125352
-0.0125358
-0.0125336
-0.0125332
-0.012531
-0.0125289
-0.0125265
-0.0125221
-0.0125194
-0.0125137
-0.0125103
-0.0125037
-0.0124982
-0.0124918
-0.0124835
-0.0124772
-0.0124665
-0.0124596
-0.0124484
-0.0124385
-0.012428
-0.0124141
-0.0124041
-0.0123868
-0.0123749
-0.0123567
-0.0123405
-0.0123224
-0.0123003
-0.0122812
-0.0122549
-0.0122302
-0.0122055
-0.0121728
-0.0121592
0.00288317
-0.000113201
-0.00620133
-0.011029
-0.0123604
-0.0113077
-0.00984269
-0.00880582
-0.00822254
-0.00792594
-0.0077932
-0.00776109
-0.0077926
-0.00785963
-0.00794232
-0.0080279
-0.00810725
-0.00817585
-0.0082355
-0.00829146
-0.00834783
-0.00840549
-0.0084631
-0.00851988
-0.00857767
-0.00863975
-0.00870735
-0.00877871
-0.00885145
-0.00892493
-0.00899957
-0.00907519
-0.00915083
-0.00922564
-0.0092991
-0.00937078
-0.0094401
-0.00950699
-0.0095719
-0.00963547
-0.00969762
-0.00975778
-0.00981551
-0.00987117
-0.00992536
-0.00997846
-0.0100302
-0.0100804
-0.0101291
-0.0101765
-0.0102228
-0.0102681
-0.0103125
-0.0103561
-0.0103989
-0.0104411
-0.0104826
-0.0105234
-0.0105634
-0.0106025
-0.0106406
-0.0106778
-0.0107144
-0.0107501
-0.0107847
-0.0108181
-0.0108508
-0.0108828
-0.0109142
-0.0109449
-0.0109749
-0.0110044
-0.0110336
-0.0110625
-0.0110908
-0.0111187
-0.0111464
-0.0111741
-0.0112017
-0.0112292
-0.0112564
-0.0112834
-0.0113105
-0.0113377
-0.0113647
-0.0113914
-0.0114178
-0.0114441
-0.0114702
-0.0114961
-0.0115217
-0.0115469
-0.0115719
-0.0115967
-0.0116212
-0.0116453
-0.0116693
-0.0116929
-0.0117164
-0.0117392
-0.0117619
-0.0117842
-0.0118063
-0.0118278
-0.011849
-0.0118698
-0.0118903
-0.0119105
-0.0119304
-0.0119501
-0.0119694
-0.0119887
-0.0120075
-0.0120262
-0.0120445
-0.0120629
-0.0120807
-0.0120984
-0.0121155
-0.0121324
-0.0121491
-0.0121654
-0.0121814
-0.0121968
-0.0122121
-0.0122269
-0.0122417
-0.0122558
-0.01227
-0.0122834
-0.012297
-0.0123099
-0.0123228
-0.0123351
-0.012347
-0.0123589
-0.0123701
-0.0123814
-0.012392
-0.0124029
-0.0124127
-0.0124227
-0.012432
-0.0124412
-0.0124499
-0.0124576
-0.0124656
-0.0124726
-0.0124802
-0.0124863
-0.012493
-0.0124986
-0.0125045
-0.0125095
-0.0125138
-0.0125182
-0.0125213
-0.0125255
-0.0125276
-0.0125307
-0.012532
-0.0125341
-0.0125353
-0.0125354
-0.0125362
-0.0125351
-0.0125357
-0.0125336
-0.0125331
-0.0125309
-0.0125289
-0.0125265
-0.0125221
-0.0125194
-0.0125136
-0.0125103
-0.0125037
-0.0124981
-0.0124918
-0.0124835
-0.0124772
-0.0124665
-0.0124596
-0.0124483
-0.0124385
-0.012428
-0.0124141
-0.0124041
-0.0123868
-0.0123748
-0.0123566
-0.0123405
-0.0123223
-0.0123003
-0.0122812
-0.0122549
-0.0122302
-0.0122055
-0.0121728
-0.0121592
0.00220021
-0.00028941
-0.00595029
-0.0106555
-0.0121246
-0.0112126
-0.00979232
-0.00876126
-0.00818296
-0.00789421
-0.00776889
-0.00774242
-0.00777795
-0.00784778
-0.00793243
-0.00801941
-0.00809987
-0.00816945
-0.00822998
-0.00828668
-0.0083436
-0.00840165
-0.00845959
-0.00851669
-0.00857479
-0.00863712
-0.00870491
-0.00877641
-0.00884928
-0.0089229
-0.00899767
-0.00907342
-0.00914917
-0.00922408
-0.00929763
-0.00936939
-0.00943879
-0.00950577
-0.00957075
-0.00963439
-0.00969659
-0.0097568
-0.00981457
-0.00987027
-0.00992451
-0.00997765
-0.0100294
-0.0100797
-0.0101284
-0.0101758
-0.0102221
-0.0102675
-0.0103119
-0.0103555
-0.0103984
-0.0104406
-0.0104821
-0.0105229
-0.010563
-0.010602
-0.0106402
-0.0106774
-0.010714
-0.0107497
-0.0107843
-0.0108178
-0.0108504
-0.0108824
-0.0109139
-0.0109446
-0.0109746
-0.0110041
-0.0110333
-0.0110622
-0.0110905
-0.0111184
-0.0111461
-0.0111739
-0.0112015
-0.011229
-0.0112561
-0.0112832
-0.0113103
-0.0113375
-0.0113645
-0.0113912
-0.0114176
-0.0114439
-0.01147
-0.0114959
-0.0115215
-0.0115468
-0.0115718
-0.0115965
-0.011621
-0.0116452
-0.0116692
-0.0116928
-0.0117162
-0.0117391
-0.0117618
-0.0117841
-0.0118062
-0.0118277
-0.0118489
-0.0118697
-0.0118902
-0.0119104
-0.0119303
-0.0119499
-0.0119693
-0.0119886
-0.0120074
-0.0120261
-0.0120444
-0.0120628
-0.0120806
-0.0120983
-0.0121154
-0.0121323
-0.012149
-0.0121653
-0.0121813