/*--------------------------------*- C++ -*----------------------------------*\
| =========                 |                                                 |
| \\      /  F ield         | OpenFOAM: The Open Source CFD Toolbox           |
|  \\    /   O peration     | Version:  v2012                                 |
|   \\  /    A nd           | Website:  www.openfoam.com                      |
|    \\/     M anipulation  |                                                 |
\*---------------------------------------------------------------------------*/
FoamFile
{
    version     2.0;
    format      ascii;
    class       volVectorField;
    location    "3.6";
    object      U;
}
// * * * * * * * * * * * * * * * * * * * * * * * * * * * * * * * * * * * * * //

dimensions      [0 1 -1 0 0 0 0];


internalField   nonuniform List<vector> 
17600
(
(0.846273 0.00480397 0)
(1.14761 -0.00729625 0)
(0.837962 0.00568962 0)
(1.14565 -0.00253977 0)
(0.829223 -4.01594e-05 0)
(1.13703 0.00147603 0)
(0.839599 -0.000652016 0)
(1.12744 -0.000605301 0)
(0.843562 9.49788e-05 0)
(1.12097 -0.00104863 0)
(0.849815 0.000446288 0)
(1.11579 -0.000782125 0)
(0.855288 0.00145087 0)
(1.1122 -6.82495e-05 0)
(0.858094 0.00230534 0)
(1.1092 0.000381687 0)
(0.856233 0.00298137 0)
(1.10696 0.000755192 0)
(0.847067 0.00391796 0)
(1.10389 0.00121213 0)
(0.855232 0.00475987 0)
(1.13349 -0.00703498 0)
(0.845511 0.0055329 0)
(1.12888 -0.00227403 0)
(0.840846 -0.00016901 0)
(1.11916 0.00158897 0)
(0.857339 -0.000766236 0)
(1.10771 -0.000412756 0)
(0.865612 -9.72472e-05 0)
(1.09737 -0.000891063 0)
(0.87716 0.000253199 0)
(1.08643 -0.000598863 0)
(0.890574 0.00128519 0)
(1.0735 0.000165588 0)
(0.906241 0.00226209 0)
(1.05537 0.000508014 0)
(0.924952 0.00328137 0)
(1.02905 0.000521266 0)
(0.947483 0.00531649 0)
(0.988423 0.00026552 0)
(0.872822 0.00475681 0)
(1.11143 -0.00677101 0)
(0.862123 0.00536948 0)
(1.10205 -0.00204745 0)
(0.864892 -0.000278983 0)
(1.08784 0.00160609 0)
(0.888369 -0.000824558 0)
(1.07456 -0.000340871 0)
(0.901617 -0.000150976 0)
(1.06046 -0.000858334 0)
(0.918152 0.000231647 0)
(1.04516 -0.000654655 0)
(0.936085 0.00134654 0)
(1.02874 -5.12528e-06 0)
(0.954295 0.00245917 0)
(1.01085 0.000261284 0)
(0.970119 0.0036297 0)
(0.993302 0.00034695 0)
(0.979285 0.00571041 0)
(0.977727 0.00125864 0)
(0.896448 0.00479982 0)
(1.08587 -0.00654377 0)
(0.886003 0.00529655 0)
(1.07193 -0.00194953 0)
(0.896812 -0.000279659 0)
(1.05271 0.00147887 0)
(0.923502 -0.000792405 0)
(1.04017 -0.000409112 0)
(0.937593 -7.36967e-05 0)
(1.02655 -0.00098732 0)
(0.953314 0.000359076 0)
(1.01356 -0.000859841 0)
(0.967476 0.00153317 0)
(1.00291 -0.000261249 0)
(0.978602 0.00269246 0)
(0.994672 4.39267e-05 0)
(0.984789 0.00385859 0)
(0.988918 0.000336981 0)
(0.984504 0.00583672 0)
(0.98351 0.00232374 0)
(0.922337 0.00486416 0)
(1.06098 -0.00634675 0)
(0.913097 0.00530222 0)
(1.04474 -0.0019614 0)
(0.92914 -0.000179684 0)
(1.02356 0.00127647 0)
(0.953724 -0.000719748 0)
(1.01507 -0.000528443 0)
(0.964243 3.87678e-05 0)
(1.00593 -0.00114467 0)
(0.975003 0.000484501 0)
(0.998651 -0.00102437 0)
(0.982858 0.00165423 0)
(0.994676 -0.000407882 0)
(0.987764 0.00279653 0)
(0.992528 -3.52896e-05 0)
(0.98948 0.00394834 0)
(0.990575 0.000422008 0)
(0.987522 0.00591363 0)
(0.986386 0.003274 0)
(0.946625 0.0049288 0)
(1.04014 -0.00618058 0)
(0.938932 0.00534988 0)
(1.02464 -0.00204003 0)
(0.955918 -3.24148e-05 0)
(1.00556 0.00107011 0)
(0.974976 -0.000660493 0)
(1.00232 -0.000630022 0)
(0.980621 0.000119494 0)
(0.998113 -0.00125469 0)
(0.986445 0.000552501 0)
(0.995144 -0.00111126 0)
(0.989999 0.00169181 0)
(0.99442 -0.000473851 0)
(0.992066 0.00281065 0)
(0.994072 -4.89427e-05 0)
(0.992568 0.00396189 0)
(0.992741 0.000565498 0)
(0.990524 0.00595332 0)
(0.98897 0.00412759 0)
(0.966455 0.00497666 0)
(1.02505 -0.00604425 0)
(0.960276 0.00540731 0)
(1.01258 -0.00213948 0)
(0.974882 0.000109641 0)
(0.997996 0.000898988 0)
(0.988058 -0.000633188 0)
(0.99861 -0.000697292 0)
(0.99007 0.000162602 0)
(0.997476 -0.00131917 0)
(0.992809 0.000583294 0)
(0.996311 -0.00115518 0)
(0.994269 0.00169548 0)
(0.996404 -0.000506633 0)
(0.9952 0.00279328 0)
(0.996273 -3.04593e-05 0)
(0.995239 0.00392376 0)
(0.995028 0.000790546 0)
(0.993138 0.00592204 0)
(0.991661 0.00493721 0)
(0.980652 0.00499704 0)
(1.01548 -0.00593259 0)
(0.975864 0.00545088 0)
(1.00685 -0.00222749 0)
(0.986806 0.000218671 0)
(0.996822 0.000770127 0)
(0.995628 -0.000627397 0)
(0.99912 -0.000742092 0)
(0.995726 0.000186089 0)
(0.999245 -0.00135807 0)
(0.996913 0.000603365 0)
(0.998456 -0.00117754 0)
(0.997388 0.00169357 0)
(0.998521 -0.000518477 0)
(0.997701 0.00276588 0)
(0.998262 2.19299e-05 0)
(0.997401 0.00384594 0)
(0.996999 0.00109344 0)
(0.995263 0.00582825 0)
(0.993928 0.00570115 0)
(0.989639 0.00498867 0)
(1.01 -0.00583956 0)
(0.986104 0.00546907 0)
(1.00481 -0.00229088 0)
(0.993693 0.000291534 0)
(0.998123 0.000672694 0)
(0.999947 -0.000627001 0)
(1.00063 -0.000776813 0)
(0.999217 0.000203107 0)
(1.00111 -0.0013832 0)
(0.999681 0.000623249 0)
(1.00028 -0.00118364 0)
(0.999634 0.00169131 0)
(1.00017 -0.000508011 0)
(0.999526 0.00272683 0)
(0.999737 0.000116277 0)
(0.998962 0.00373556 0)
(0.998418 0.00145607 0)
(0.99682 0.00569997 0)
(0.995582 0.00639878 0)
(0.994766 0.00495764 0)
(1.00698 -0.00575958 0)
(0.992268 0.0054611 0)
(1.00434 -0.00232938 0)
(0.997451 0.000337047 0)
(0.999681 0.000594297 0)
(1.00237 -0.000623037 0)
(1.00185 -0.000807203 0)
(1.00127 0.000219171 0)
(1.00241 -0.00139972 0)
(1.00143 0.00064369 0)
(1.00153 -0.00117574 0)
(1.00112 0.00168414 0)
(1.00131 -0.000473662 0)
(1.00075 0.00266816 0)
(1.00074 0.00025428 0)
(1 0.00359684 0)
(0.999364 0.00185913 0)
(0.997891 0.00556703 0)
(0.996727 0.00700793 0)
(0.997503 0.0049123 0)
(1.00524 -0.00568728 0)
(0.995759 0.00543112 0)
(1.00432 -0.00234754 0)
(0.999427 0.000364539 0)
(1.00076 0.000528021 0)
(1.00365 -0.000613955 0)
(1.00254 -0.000833994 0)
(1.00235 0.000233715 0)
(1.00314 -0.00141022 0)
(1.00243 0.000660298 0)
(1.00233 -0.00115555 0)
(1.00206 0.00166491 0)
(1.0021 -0.000414433 0)
(1.00157 0.00258342 0)
(1.00145 0.00043344 0)
(1.00073 0.00343559 0)
(1.00004 0.00228211 0)
(0.998682 0.00545947 0)
(0.997582 0.00751142 0)
(0.998955 0.00485912 0)
(1.00413 -0.00561778 0)
(0.997687 0.00538332 0)
(1.00432 -0.00234988 0)
(1.00045 0.000379684 0)
(1.00136 0.000470846 0)
(1.00427 -0.000602052 0)
(1.00284 -0.000856109 0)
(1.00283 0.000243486 0)
(1.0035 -0.00141544 0)
(1.00295 0.000666568 0)
(1.00283 -0.00112352 0)
(1.00266 0.00162699 0)
(1.00266 -0.000330055 0)
(1.00217 0.00247038 0)
(1.00201 0.000646201 0)
(1.00132 0.00326356 0)
(1.0006 0.00270025 0)
(0.999369 0.00540327 0)
(0.99833 0.00790228 0)
(0.999762 0.00480149 0)
(1.00339 -0.0055473 0)
(0.99877 0.00532047 0)
(1.00427 -0.00233942 0)
(1.00099 0.000384656 0)
(1.00166 0.000422085 0)
(1.00455 -0.00059018 0)
(1.00293 -0.00087305 0)
(1.00301 0.000246972 0)
(1.00364 -0.00141485 0)
(1.00322 0.000658299 0)
(1.00313 -0.00107853 0)
(1.00306 0.001565 0)
(1.00308 -0.000223614 0)
(1.00265 0.00233027 0)
(1.00247 0.000880755 0)
(1.00185 0.00309964 0)
(1.00112 0.00308766 0)
(1.00002 0.00541299 0)
(0.999049 0.00818734 0)
(1.00023 0.0047405 0)
(1.0029 -0.00547337 0)
(0.999404 0.00524422 0)
(1.0042 -0.0023178 0)
(1.0013 0.000379618 0)
(1.00181 0.000382543 0)
(1.00467 -0.00058091 0)
(1.00294 -0.000883659 0)
(1.00306 0.00024246 0)
(1.00368 -0.00140632 0)
(1.00336 0.000632471 0)
(1.00332 -0.00101963 0)
(1.00334 0.00147744 0)
(1.00339 -9.94143e-05 0)
(1.00302 0.00216938 0)
(1.00285 0.00112193 0)
(1.00231 0.00296465 0)
(1.0016 0.00342556 0)
(1.00063 0.00548784 0)
(0.999736 0.0083852 0)
(1.00051 0.00467611 0)
(1.00259 -0.00539439 0)
(0.999785 0.00515564 0)
(1.00412 -0.00228583 0)
(1.00148 0.000364563 0)
(1.00189 0.000351259 0)
(1.00473 -0.0005772 0)
(1.00293 -0.000885816 0)
(1.00306 0.000227505 0)
(1.00368 -0.00138659 0)
(1.00343 0.000586579 0)
(1.00343 -0.000946559 0)
(1.00353 0.00136443 0)
(1.0036 4.33788e-05 0)
(1.00331 0.00199861 0)
(1.00315 0.00135355 0)
(1.00269 0.00287258 0)
(1.00201 0.00371023 0)
(1.00117 0.00561595 0)
(1.00036 0.00851936 0)
(1.00066 0.00460791 0)
(1.00241 -0.00530923 0)
(1.00002 0.00505524 0)
(1.00405 -0.00224363 0)
(1.00161 0.000338908 0)
(1.00192 0.000329007 0)
(1.00475 -0.000581679 0)
(1.00292 -0.00087752 0)
(1.00305 0.000200034 0)
(1.00367 -0.00135342 0)
(1.00347 0.000520719 0)
(1.00349 -0.000859518 0)
(1.00366 0.00122815 0)
(1.00375 0.000197442 0)
(1.00352 0.00183146 0)
(1.00336 0.00156034 0)
(1.003 0.00282749 0)
(1.00235 0.00394913 0)
(1.00163 0.00577953 0)
(1.00091 0.00861015 0)
(1.00073 0.00453553 0)
(1.00231 -0.00521704 0)
(1.00016 0.00494316 0)
(1.00397 -0.00219096 0)
(1.0017 0.000301454 0)
(1.00193 0.00031899 0)
(1.00476 -0.000596468 0)
(1.00292 -0.000857004 0)
(1.00305 0.000158268 0)
(1.00366 -0.00130496 0)
(1.00351 0.000435415 0)
(1.00354 -0.000760063 0)
(1.00376 0.00107653 0)
(1.00384 0.000348127 0)
(1.00368 0.00168575 0)
(1.00351 0.00173309 0)
(1.00324 0.00282765 0)
(1.00263 0.00415095 0)
(1.00203 0.00595946 0)
(1.00139 0.00867108 0)
(1.00077 0.00445866 0)
(1.00225 -0.00511708 0)
(1.00026 0.00481932 0)
(1.00388 -0.00212763 0)
(1.00177 0.000251671 0)
(1.00191 0.000320653 0)
(1.00477 -0.000625209 0)
(1.00292 -0.000821885 0)
(1.00304 0.000100366 0)
(1.00365 -0.00124141 0)
(1.00354 0.000333795 0)
(1.00357 -0.000650837 0)
(1.00384 0.000921467 0)
(1.0039 0.000482499 0)
(1.0038 0.00157384 0)
(1.00363 0.0018742 0)
(1.00343 0.00286847 0)
(1.00287 0.00432535 0)
(1.00237 0.00614387 0)
(1.00181 0.00871424 0)
(1.00078 0.00437701 0)
(1.00221 -0.00500867 0)
(1.00033 0.00468339 0)
(1.00379 -0.00205282 0)
(1.00184 0.000187937 0)
(1.00189 0.000335283 0)
(1.00477 -0.000669068 0)
(1.00292 -0.000772482 0)
(1.00305 2.64692e-05 0)
(1.00365 -0.0011649 0)
(1.00358 0.000221376 0)
(1.00359 -0.000538542 0)
(1.00391 0.000775295 0)
(1.00395 0.000587013 0)
(1.0039 0.00149223 0)
(1.00372 0.0019904 0)
(1.00361 0.00294063 0)
(1.0031 0.00448255 0)
(1.00269 0.0063294 0)
(1.0022 0.00875565 0)
(1.00079 0.00429034 0)
(1.00218 -0.00489107 0)
(1.00039 0.00453429 0)
(1.00369 -0.00196464 0)
(1.00191 0.000107992 0)
(1.00185 0.000365807 0)
(1.00476 -0.000729058 0)
(1.00293 -0.000709141 0)
(1.00306 -6.24547e-05 0)
(1.00365 -0.00108002 0)
(1.00362 0.000104027 0)
(1.00362 -0.000432795 0)
(1.00398 0.000650449 0)
(1.00399 0.000659877 0)
(1.004 0.001432 0)
(1.00382 0.00208698 0)
(1.00378 0.00303152 0)
(1.00332 0.0046278 0)
(1.00299 0.0065123 0)
(1.00256 0.00880926 0)
(1.00079 0.00419837 0)
(1.00216 -0.00476333 0)
(1.00045 0.00437034 0)
(1.0036 -0.00186147 0)
(1.00198 1.00318e-05 0)
(1.00182 0.000413766 0)
(1.00476 -0.000807443 0)
(1.00294 -0.00063462 0)
(1.00307 -0.000160512 0)
(1.00366 -0.000992252 0)
(1.00366 -4.11681e-06 0)
(1.00364 -0.000344626 0)
(1.00405 0.000551059 0)
(1.00404 0.000708027 0)
(1.00409 0.00138946 0)
(1.00392 0.00217166 0)
(1.00396 0.00313505 0)
(1.00355 0.00476533 0)
(1.0033 0.00668677 0)
(1.00291 0.0088812 0)
(1.00078 0.00410101 0)
(1.00214 -0.00462495 0)
(1.0005 0.00419109 0)
(1.0035 -0.00174406 0)
(1.00204 -0.000105407 0)
(1.00179 0.000477407 0)
(1.00476 -0.000901022 0)
(1.00295 -0.000551534 0)
(1.00307 -0.000264298 0)
(1.00366 -0.000907187 0)
(1.00371 -0.000103981 0)
(1.00367 -0.000280785 0)
(1.00411 0.000473719 0)
(1.00409 0.000736615 0)
(1.00419 0.00135931 0)
(1.00403 0.00224921 0)
(1.00414 0.00324878 0)
(1.0038 0.00490038 0)
(1.0036 0.00684649 0)
(1.00325 0.00896958 0)
(1.00077 0.00399825 0)
(1.00213 -0.00447444 0)
(1.00056 0.00399503 0)
(1.0034 -0.00161042 0)
(1.0021 -0.000239192 0)
(1.00176 0.000555212 0)
(1.00475 -0.00100412 0)
(1.00297 -0.000461884 0)
(1.00308 -0.000369776 0)
(1.00368 -0.000834814 0)
(1.00375 -0.000193131 0)
(1.00371 -0.000246741 0)
(1.00418 0.000406483 0)
(1.00414 0.000749371 0)
(1.00429 0.00132606 0)
(1.00415 0.00231726 0)
(1.00432 0.00336287 0)
(1.00405 0.0050366 0)
(1.00392 0.0069875 0)
(1.00359 0.0090715 0)
(1.00075 0.00388816 0)
(1.00212 -0.00430789 0)
(1.0006 0.00377624 0)
(1.00331 -0.00145541 0)
(1.00216 -0.000396349 0)
(1.00173 0.000650221 0)
(1.00473 -0.00112151 0)
(1.00299 -0.000369886 0)
(1.00308 -0.000468629 0)
(1.00369 -0.000787973 0)
(1.00379 -0.000253976 0)
(1.00375 -0.000238276 0)
(1.00424 0.000347563 0)
(1.00421 0.000751749 0)
(1.0044 0.00128081 0)
(1.00429 0.00236227 0)
(1.00452 0.00346263 0)
(1.00432 0.00516092 0)
(1.00424 0.00711172 0)
(1.00393 0.00919559 0)
(1.00072 0.00377363 0)
(1.00212 -0.00413034 0)
(1.00064 0.00354141 0)
(1.00322 -0.00128976 0)
(1.00221 -0.000565681 0)
(1.00172 0.000749805 0)
(1.00471 -0.0012396 0)
(1.00302 -0.000296265 0)
(1.00307 -0.000532289 0)
(1.00372 -0.00078712 0)
(1.00382 -0.000274407 0)
(1.00379 -0.000265509 0)
(1.00431 0.000313765 0)
(1.00427 0.000738413 0)
(1.00451 0.00124863 0)
(1.00445 0.0023515 0)
(1.00473 0.0035363 0)
(1.00461 0.00518628 0)
(1.00458 0.00719939 0)
(1.00428 0.00933074 0)
(1.00067 0.00365279 0)
(1.00212 -0.00393665 0)
(1.00068 0.00328664 0)
(1.00314 -0.00110789 0)
(1.00225 -0.000748886 0)
(1.00171 0.000853116 0)
(1.00468 -0.00135193 0)
(1.00306 -0.000247971 0)
(1.00306 -0.000557893 0)
(1.00375 -0.000816511 0)
(1.00385 -0.000274835 0)
(1.00384 -0.000311099 0)
(1.00437 0.000268778 0)
(1.00435 0.000735432 0)
(1.00462 0.00122407 0)
(1.00462 0.00231715 0)
(1.00494 0.0035576 0)
(1.00491 0.00513759 0)
(1.00494 0.00713626 0)
(1.00465 0.0092844 0)
(1.00062 0.00352335 0)
(1.00213 -0.00372129 0)
(1.00071 0.003005 0)
(1.00306 -0.000905794 0)
(1.00229 -0.000948102 0)
(1.00171 0.000956613 0)
(1.00463 -0.00145545 0)
(1.00311 -0.000221464 0)
(1.00303 -0.000557027 0)
(1.00379 -0.000862825 0)
(1.00387 -0.000270572 0)
(1.0039 -0.000349177 0)
(1.00443 0.00018892 0)
(1.00443 0.000744716 0)
(1.00472 0.00120335 0)
(1.00481 0.00230192 0)
(1.00516 0.00362299 0)
(1.00522 0.00517556 0)
(1.00532 0.00709571 0)
(1.00507 0.00925899 0)
(1.00057 0.0033912 0)
(1.00214 -0.00349636 0)
(1.00073 0.00271416 0)
(1.00298 -0.000705438 0)
(1.00232 -0.00113969 0)
(1.00171 0.00103854 0)
(1.00458 -0.00151602 0)
(1.00317 -0.000242683 0)
(1.00299 -0.000511317 0)
(1.00383 -0.000944634 0)
(1.00389 -0.000258001 0)
(1.00395 -0.000370324 0)
(1.00449 0.00010035 0)
(1.00452 0.000763117 0)
(1.00483 0.00125802 0)
(1.00501 0.00233879 0)
(1.00539 0.003776 0)
(1.00554 0.00530868 0)
(1.00569 0.00715977 0)
(1.00551 0.00924712 0)
(1.00051 0.00325025 0)
(1.00214 -0.00325074 0)
(1.00075 0.00240441 0)
(1.0029 -0.00049806 0)
(1.00235 -0.00133091 0)
(1.00172 0.001103 0)
(1.00452 -0.00154196 0)
(1.00323 -0.000301499 0)
(1.00295 -0.000440533 0)
(1.00387 -0.00102802 0)
(1.00392 -0.000257138 0)
(1.00399 -0.000340547 0)
(1.00456 6.10661e-05 0)
(1.00463 0.000847922 0)
(1.00494 0.001403 0)
(1.00523 0.00243094 0)
(1.00564 0.00391121 0)
(1.00586 0.00547686 0)
(1.00607 0.00724115 0)
(1.00595 0.0092276 0)
(1.00045 0.00310513 0)
(1.00214 -0.00299193 0)
(1.00078 0.00208216 0)
(1.00282 -0.000295962 0)
(1.00237 -0.00151143 0)
(1.00173 0.00113544 0)
(1.00445 -0.00153653 0)
(1.0033 -0.000390861 0)
(1.0029 -0.000354853 0)
(1.00391 -0.00109257 0)
(1.00395 -0.000253901 0)
(1.00404 -0.000223536 0)
(1.00463 9.74135e-05 0)
(1.00475 0.000989352 0)
(1.00506 0.00159807 0)
(1.00545 0.00254181 0)
(1.00591 0.00400753 0)
(1.00619 0.00562348 0)
(1.00644 0.00730597 0)
(1.00639 0.00917315 0)
(1.00039 0.00295586 0)
(1.00213 -0.00272458 0)
(1.0008 0.00176076 0)
(1.00273 -0.00011975 0)
(1.0024 -0.0016605 0)
(1.00174 0.00112456 0)
(1.00438 -0.00149427 0)
(1.00337 -0.000507229 0)
(1.00286 -0.000253553 0)
(1.00394 -0.00112559 0)
(1.00399 -0.00021947 0)
(1.00408 -4.50674e-05 0)
(1.00471 0.000151599 0)
(1.00488 0.0011132 0)
(1.00518 0.00181181 0)
(1.00567 0.00266327 0)
(1.00619 0.00407228 0)
(1.00652 0.00571756 0)
(1.00681 0.00734939 0)
(1.00681 0.00908893 0)
(1.00034 0.00280049 0)
(1.0021 -0.00244729 0)
(1.00084 0.00144319 0)
(1.00264 2.90284e-05 0)
(1.00242 -0.00178518 0)
(1.00176 0.00107863 0)
(1.0043 -0.00142723 0)
(1.00344 -0.000634122 0)
(1.00282 -0.000144392 0)
(1.00396 -0.00109265 0)
(1.00406 -0.000169487 0)
(1.00413 0.000150443 0)
(1.00479 0.000211456 0)
(1.00503 0.00118719 0)
(1.0053 0.00200548 0)
(1.00587 0.00279464 0)
(1.00647 0.00410208 0)
(1.00687 0.00574692 0)
(1.00718 0.00734681 0)
(1.00722 0.00896897 0)
(1.0003 0.00264569 0)
(1.00207 -0.00217647 0)
(1.00087 0.00114773 0)
(1.00254 0.000146004 0)
(1.00245 -0.00188437 0)
(1.00177 0.000996926 0)
(1.00422 -0.0013376 0)
(1.00352 -0.000754984 0)
(1.00279 -5.56496e-06 0)
(1.00398 -0.000988127 0)
(1.00413 -0.000137452 0)
(1.00417 0.000363151 0)
(1.00486 0.000308718 0)
(1.00518 0.00122588 0)
(1.00544 0.00216687 0)
(1.00607 0.00293694 0)
(1.00676 0.00411507 0)
(1.00723 0.00572238 0)
(1.00754 0.00729678 0)
(1.00761 0.00881954 0)
(1.00026 0.00248796 0)
(1.00201 -0.0019097 0)
(1.00091 0.000880255 0)
(1.00243 0.000230142 0)
(1.00247 -0.00195684 0)
(1.00179 0.000882377 0)
(1.00414 -0.00123091 0)
(1.00359 -0.000842641 0)
(1.00278 0.000173167 0)
(1.00398 -0.000825171 0)
(1.00422 -0.00012311 0)
(1.00421 0.000563012 0)
(1.00492 0.000443316 0)
(1.00534 0.0012391 0)
(1.0056 0.0022867 0)
(1.00626 0.00308258 0)
(1.00704 0.00413368 0)
(1.00759 0.0056656 0)
(1.00791 0.00721403 0)
(1.00799 0.00865626 0)
(1.00023 0.00232949 0)
(1.00195 -0.00165223 0)
(1.00095 0.000642752 0)
(1.00233 0.000286749 0)
(1.00249 -0.00200862 0)
(1.00182 0.000756774 0)
(1.00406 -0.00111371 0)
(1.00367 -0.000886934 0)
(1.00278 0.000361999 0)
(1.00397 -0.000626975 0)
(1.00431 -0.000119749 0)
(1.00426 0.000722814 0)
(1.00497 0.000608171 0)
(1.0055 0.00124472 0)
(1.00577 0.00235569 0)
(1.00644 0.00321345 0)
(1.00731 0.00416232 0)
(1.00794 0.00558889 0)
(1.00829 0.00710137 0)
(1.00835 0.00847951 0)
(1.0002 0.00217465 0)
(1.00188 -0.00141635 0)
(1.00099 0.000448155 0)
(1.00222 0.000310631 0)
(1.0025 -0.00204707 0)
(1.00185 0.000631726 0)
(1.00398 -0.000952505 0)
(1.00375 -0.000906851 0)
(1.00279 0.000519161 0)
(1.00394 -0.000413453 0)
(1.0044 -0.000126851 0)
(1.00432 0.000838221 0)
(1.00501 0.000796687 0)
(1.00566 0.0012668 0)
(1.00596 0.00238412 0)
(1.00663 0.00332209 0)
(1.00757 0.00420683 0)
(1.0083 0.00550883 0)
(1.00866 0.00696536 0)
(1.00871 0.00828954 0)
(1.00018 0.00201932 0)
(1.0018 -0.00119945 0)
(1.00102 0.000288225 0)
(1.00211 0.000322307 0)
(1.00251 -0.00205956 0)
(1.0019 0.000509297 0)
(1.00391 -0.000737997 0)
(1.00384 -0.000916359 0)
(1.00282 0.000623621 0)
(1.0039 -0.000184784 0)
(1.00449 -0.000121687 0)
(1.0044 0.000915662 0)
(1.00504 0.000994625 0)
(1.0058 0.00131893 0)
(1.00617 0.00238804 0)
(1.00683 0.00340671 0)
(1.00781 0.00426442 0)
(1.00864 0.00543624 0)
(1.00904 0.00681206 0)
(1.00907 0.00808479 0)
(1.00016 0.00186711 0)
(1.00171 -0.00100498 0)
(1.00105 0.000148066 0)
(1.002 0.000356639 0)
(1.00251 -0.00203164 0)
(1.00196 0.000391489 0)
(1.00384 -0.000505961 0)
(1.00392 -0.000905912 0)
(1.00287 0.00068231 0)
(1.00385 4.88602e-05 0)
(1.00457 -9.00272e-05 0)
(1.00449 0.000957818 0)
(1.00508 0.00118565 0)
(1.00593 0.00140525 0)
(1.00639 0.00237945 0)
(1.00704 0.00345941 0)
(1.00805 0.00431657 0)
(1.00896 0.00536628 0)
(1.00941 0.00664028 0)
(1.00942 0.00785785 0)
(1.00014 0.00171966 0)
(1.00163 -0.000840603 0)
(1.00108 3.11293e-05 0)
(1.00189 0.000404258 0)
(1.00251 -0.00196153 0)
(1.00203 0.000276483 0)
(1.00377 -0.000282718 0)
(1.004 -0.000866178 0)
(1.00294 0.000700721 0)
(1.0038 0.000290501 0)
(1.00464 -3.16443e-05 0)
(1.00461 0.00096771 0)
(1.00513 0.00135887 0)
(1.00604 0.00152377 0)
(1.00661 0.00237208 0)
(1.00727 0.00347467 0)
(1.00829 0.00434692 0)
(1.00927 0.00529307 0)
(1.00977 0.0064534 0)
(1.00976 0.00760854 0)
(1.00012 0.00157608 0)
(1.00154 -0.000699469 0)
(1.00111 -7.05362e-05 0)
(1.00179 0.000460329 0)
(1.00251 -0.00184627 0)
(1.00212 0.000164446 0)
(1.00371 -8.10886e-05 0)
(1.00406 -0.000789649 0)
(1.00302 0.000687009 0)
(1.00375 0.000530682 0)
(1.0047 6.42992e-05 0)
(1.00474 0.000960449 0)
(1.00519 0.00150735 0)
(1.00614 0.00166817 0)
(1.00683 0.00238036 0)
(1.00751 0.00345887 0)
(1.00852 0.00434821 0)
(1.00956 0.00521293 0)
(1.01012 0.00625623 0)
(1.0101 0.00733961 0)
(1.0001 0.00143426 0)
(1.00145 -0.000573095 0)
(1.00114 -0.000163306 0)
(1.0017 0.00052967 0)
(1.00249 -0.00168121 0)
(1.00222 6.23312e-05 0)
(1.00366 0.000107777 0)
(1.00412 -0.000675261 0)
(1.00313 0.000651628 0)
(1.00371 0.000738854 0)
(1.00474 0.000203961 0)
(1.00488 0.000952534 0)
(1.00527 0.00161827 0)
(1.00623 0.0018197 0)
(1.00703 0.00240647 0)
(1.00777 0.00342188 0)
(1.00876 0.00431878 0)
(1.00983 0.00512287 0)
(1.01045 0.0060529 0)
(1.01044 0.00705508 0)
(1.00009 0.00129659 0)
(1.00136 -0.000459294 0)
(1.00118 -0.000257841 0)
(1.00162 0.000597617 0)
(1.00247 -0.00146376 0)
(1.00233 -1.29555e-05 0)
(1.00363 0.000286472 0)
(1.00417 -0.000525385 0)
(1.00324 0.000610369 0)
(1.00368 0.000912733 0)
(1.00476 0.000376422 0)
(1.00502 0.000957341 0)
(1.00537 0.00168636 0)
(1.00632 0.00195629 0)
(1.00722 0.00244388 0)
(1.00802 0.00337231 0)
(1.00901 0.00426172 0)
(1.01009 0.00502196 0)
(1.01077 0.00584774 0)
(1.01077 0.00676043 0)
(1.00008 0.00115988 0)
(1.00128 -0.000349821 0)
(1.00121 -0.000364053 0)
(1.00156 0.000656395 0)
(1.00245 -0.0011992 0)
(1.00244 -5.07736e-05 0)
(1.00361 0.000447025 0)
(1.0042 -0.000344448 0)
(1.00337 0.000578783 0)
(1.00368 0.00104974 0)
(1.00477 0.000566636 0)
(1.00516 0.000984955 0)
(1.00549 0.00172352 0)
(1.00642 0.00206652 0)
(1.00741 0.00248625 0)
(1.00827 0.00331739 0)
(1.00926 0.00418226 0)
(1.01034 0.00490911 0)
(1.01107 0.00564158 0)
(1.01109 0.00645799 0)
(1.00007 0.0010273 0)
(1.00119 -0.000251671 0)
(1.00126 -0.000477438 0)
(1.00152 0.000704312 0)
(1.00242 -0.000892601 0)
(1.00256 -5.31563e-05 0)
(1.00361 0.000577479 0)
(1.00423 -0.00014487 0)
(1.0035 0.000564893 0)
(1.0037 0.00114618 0)
(1.00478 0.00075886 0)
(1.00529 0.00103744 0)
(1.00563 0.00174776 0)
(1.00652 0.00215195 0)
(1.00758 0.00253204 0)
(1.00852 0.003266 0)
(1.00952 0.00408926 0)
(1.01059 0.00478688 0)
(1.01135 0.00543735 0)
(1.0114 0.00615418 0)
(1.00007 0.000899886 0)
(1.0011 -0.000160294 0)
(1.0013 -0.000593825 0)
(1.00151 0.00073603 0)
(1.00239 -0.000546787 0)
(1.00267 -9.49055e-06 0)
(1.00363 0.000687821 0)
(1.00425 7.56232e-05 0)
(1.00363 0.000588675 0)
(1.00375 0.00121611 0)
(1.00479 0.000943448 0)
(1.00541 0.00111209 0)
(1.00579 0.0017666 0)
(1.00664 0.00221307 0)
(1.00774 0.00257108 0)
(1.00876 0.00321358 0)
(1.00977 0.00398072 0)
(1.01083 0.00464931 0)
(1.01161 0.00523115 0)
(1.01168 0.00585226 0)
(1.00006 0.000785548 0)
(1.00101 -8.70376e-05 0)
(1.00135 -0.000665181 0)
(1.00153 0.000747806 0)
(1.00236 -0.000200742 0)
(1.00277 7.73856e-05 0)
(1.00367 0.000782609 0)
(1.00427 0.000308247 0)
(1.00376 0.000651921 0)
(1.00381 0.00127332 0)
(1.00481 0.00111394 0)
(1.00552 0.00120825 0)
(1.00595 0.00178857 0)
(1.00677 0.002258 0)
(1.0079 0.00260003 0)
(1.009 0.00315721 0)
(1.01003 0.00385602 0)
(1.01107 0.00449165 0)
(1.01185 0.00501719 0)
(1.01195 0.00555104 0)
(1.00006 0.000687791 0)
(1.00092 -6.40874e-06 0)
(1.0014 -0.000668865 0)
(1.00158 0.000719539 0)
(1.00234 9.16242e-05 0)
(1.00287 0.000173012 0)
(1.00372 0.000848996 0)
(1.00429 0.000535571 0)
(1.00388 0.000747239 0)
(1.00389 0.00132295 0)
(1.00483 0.00126073 0)
(1.00563 0.00131122 0)
(1.00611 0.00180977 0)
(1.00691 0.00228279 0)
(1.00806 0.00261041 0)
(1.00922 0.00309013 0)
(1.01029 0.00371471 0)
(1.01131 0.00431355 0)
(1.01208 0.00479445 0)
(1.01219 0.005253 0)
(1.00006 0.000551745 0)
(1.00083 0.000176109 0)
(1.00144 -0.000594935 0)
(1.00164 0.00068586 0)
(1.00233 0.000349229 0)
(1.00295 0.000281483 0)
(1.00378 0.000879872 0)
(1.00432 0.000731789 0)
(1.00398 0.000862074 0)
(1.00398 0.00136671 0)
(1.00486 0.00138 0)
(1.00572 0.0014106 0)
(1.00626 0.00182933 0)
(1.00705 0.0022868 0)
(1.0082 0.00259789 0)
(1.00942 0.00300693 0)
(1.01053 0.00355512 0)
(1.01154 0.00411212 0)
(1.01229 0.00455668 0)
(1.01241 0.00495188 0)
(1.00006 0.000474328 0)
(1.00075 0.00027091 0)
(1.00147 -0.00050494 0)
(1.00172 0.000649335 0)
(1.00232 0.000588955 0)
(1.00301 0.000439379 0)
(1.00385 0.000927808 0)
(1.00435 0.000920572 0)
(1.00407 0.00102229 0)
(1.00407 0.00144017 0)
(1.0049 0.00149611 0)
(1.0058 0.00152031 0)
(1.00641 0.00186398 0)
(1.00719 0.0022884 0)
(1.00834 0.00257633 0)
(1.0096 0.0029184 0)
(1.01076 0.00338896 0)
(1.01176 0.0038977 0)
(1.01249 0.00431044 0)
(1.01259 0.00465347 0)
(1.00006 0.000422569 0)
(1.00067 0.000315925 0)
(1.00149 -0.000401327 0)
(1.00181 0.000613548 0)
(1.00233 0.000806779 0)
(1.00306 0.000636983 0)
(1.00392 0.000991566 0)
(1.0044 0.00108005 0)
(1.00416 0.00119376 0)
(1.00415 0.00153476 0)
(1.00494 0.0015986 0)
(1.00588 0.00162363 0)
(1.00655 0.00190334 0)
(1.00732 0.00228751 0)
(1.00847 0.00254579 0)
(1.00977 0.0028229 0)
(1.01097 0.00321407 0)
(1.01198 0.00366752 0)
(1.01268 0.00404977 0)
(1.01276 0.00435132 0)
(1.00006 0.000332376 0)
(1.00059 0.000460736 0)
(1.0015 -0.000242331 0)
(1.0019 0.000592931 0)
(1.00235 0.000984932 0)
(1.00309 0.000844932 0)
(1.00399 0.00106121 0)
(1.00445 0.00120523 0)
(1.00424 0.0013491 0)
(1.00422 0.00164172 0)
(1.00498 0.00168818 0)
(1.00595 0.00170475 0)
(1.00667 0.001931 0)
(1.00745 0.00227387 0)
(1.00858 0.00249876 0)
(1.0099 0.00271104 0)
(1.01116 0.0030182 0)
(1.01218 0.00340786 0)
(1.01286 0.00375793 0)
(1.01291 0.00402833 0)
(1.00006 0.000277388 0)
(1.00053 0.000585706 0)
(1.00149 -8.79982e-05 0)
(1.00199 0.00057151 0)
(1.00239 0.00112451 0)
(1.00311 0.00107031 0)
(1.00404 0.00116851 0)
(1.00451 0.00133207 0)
(1.00432 0.00150803 0)
(1.00428 0.00177205 0)
(1.00501 0.00179191 0)
(1.006 0.00177598 0)
(1.00678 0.00195106 0)
(1.00756 0.00225393 0)
(1.00867 0.0024488 0)
(1.01001 0.00259921 0)
(1.01131 0.0028168 0)
(1.01236 0.0031315 0)
(1.01302 0.00344222 0)
(1.01304 0.00368753 0)
(1.00007 0.00023753 0)
(1.00046 0.000659115 0)
(1.00145 0.000101542 0)
(1.00208 0.000595842 0)
(1.00244 0.00125627 0)
(1.00311 0.00130975 0)
(1.00407 0.00130491 0)
(1.00457 0.00144699 0)
(1.00439 0.00165734 0)
(1.00434 0.00190948 0)
(1.00502 0.0019087 0)
(1.00603 0.00184616 0)
(1.00687 0.00196191 0)
(1.00766 0.00222441 0)
(1.00874 0.00239618 0)
(1.01008 0.00249153 0)
(1.01142 0.00261795 0)
(1.01251 0.00284446 0)
(1.01317 0.00310147 0)
(1.01316 0.0033196 0)
(1.00007 0.00022557 0)
(1.00041 0.000689779 0)
(1.00142 0.000315301 0)
(1.00215 0.00065614 0)
(1.0025 0.00137637 0)
(1.00312 0.00155473 0)
(1.00408 0.0014873 0)
(1.00462 0.00157379 0)
(1.00447 0.00180881 0)
(1.00438 0.00205946 0)
(1.00502 0.00203955 0)
(1.00604 0.00192089 0)
(1.00694 0.0019629 0)
(1.00774 0.0021715 0)
(1.00879 0.00232571 0)
(1.01011 0.00237596 0)
(1.01149 0.00242231 0)
(1.01262 0.00255278 0)
(1.01329 0.00274131 0)
(1.01326 0.00292415 0)
(1.00007 0.000212736 0)
(1.00037 0.000732499 0)
(1.00137 0.000525033 0)
(1.00222 0.000744876 0)
(1.00257 0.00148486 0)
(1.00312 0.00178924 0)
(1.00407 0.0017088 0)
(1.00465 0.00171766 0)
(1.00454 0.00195106 0)
(1.00441 0.00221053 0)
(1.00499 0.00218489 0)
(1.00602 0.00200979 0)
(1.00698 0.00196976 0)
(1.00781 0.00210582 0)
(1.00882 0.00223461 0)
(1.01011 0.00224973 0)
(1.0115 0.00222849 0)
(1.01267 0.00226305 0)
(1.01338 0.00236926 0)
(1.01334 0.00250139 0)
(1.00006 0.000203719 0)
(1.00034 0.000790274 0)
(1.00132 0.000735509 0)
(1.00227 0.000868534 0)
(1.00265 0.00157902 0)
(1.00313 0.00201 0)
(1.00404 0.00194971 0)
(1.00467 0.00189379 0)
(1.0046 0.00208777 0)
(1.00444 0.00236211 0)
(1.00494 0.00234203 0)
(1.00595 0.00212253 0)
(1.00697 0.00198608 0)
(1.00784 0.00203657 0)
(1.00883 0.00211336 0)
(1.01008 0.00210066 0)
(1.01147 0.00201824 0)
(1.01267 0.00196836 0)
(1.01341 0.00198456 0)
(1.01338 0.002053 0)
(1.00006 0.000221833 0)
(1.00031 0.00083862 0)
(1.00127 0.000932968 0)
(1.00229 0.00102917 0)
(1.00274 0.0016801 0)
(1.00314 0.00222324 0)
(1.00399 0.00220311 0)
(1.00465 0.00209507 0)
(1.00465 0.00221977 0)
(1.00446 0.0024934 0)
(1.00487 0.0024904 0)
(1.00585 0.0022437 0)
(1.00691 0.00201058 0)
(1.00783 0.00196289 0)
(1.00882 0.00196915 0)
(1.01002 0.00192255 0)
(1.01138 0.00178918 0)
(1.0126 0.00166547 0)
(1.01338 0.00159578 0)
(1.01338 0.00159243 0)
(1.00006 0.000237057 0)
(1.00029 0.000892516 0)
(1.00121 0.00113652 0)
(1.0023 0.00122445 0)
(1.00282 0.00180773 0)
(1.00316 0.00241998 0)
(1.00393 0.00247476 0)
(1.00461 0.00232984 0)
(1.00467 0.00238671 0)
(1.00447 0.0026323 0)
(1.00479 0.00265542 0)
(1.0057 0.00239379 0)
(1.0068 0.0020761 0)
(1.00777 0.00191296 0)
(1.00875 0.00183382 0)
(1.00991 0.00173116 0)
(1.01124 0.00155014 0)
(1.01246 0.00135616 0)
(1.01328 0.00120616 0)
(1.01331 0.00112586 0)
(1.00005 0.000267374 0)
(1.00028 0.000937239 0)
(1.00116 0.00133619 0)
(1.00229 0.00144336 0)
(1.00288 0.00195548 0)
(1.00318 0.00261209 0)
(1.00386 0.00275642 0)
(1.00453 0.0026028 0)
(1.00466 0.0025883 0)
(1.00447 0.00278443 0)
(1.00469 0.00281688 0)
(1.00552 0.00255204 0)
(1.00661 0.00216192 0)
(1.00763 0.00187878 0)
(1.00863 0.00169675 0)
(1.00975 0.00151983 0)
(1.01103 0.0012818 0)
(1.01225 0.00102174 0)
(1.01309 0.000793362 0)
(1.01317 0.000636172 0)
(1.00005 0.000311816 0)
(1.00028 0.000986319 0)
(1.00111 0.00152012 0)
(1.00225 0.00168545 0)
(1.00293 0.00212482 0)
(1.00321 0.00280313 0)
(1.00378 0.00303666 0)
(1.00442 0.00289941 0)
(1.00461 0.00281593 0)
(1.00443 0.00294709 0)
(1.00457 0.00297138 0)
(1.00529 0.00270922 0)
(1.00635 0.00226168 0)
(1.0074 0.00186531 0)
(1.00842 0.00156358 0)
(1.00952 0.00129584 0)
(1.01077 0.000987053 0)
(1.01197 0.000655225 0)
(1.01283 0.000350591 0)
(1.01295 0.000113636 0)
(1.00004 0.000346948 0)
(1.00028 0.00106536 0)
(1.00107 0.00170482 0)
(1.00221 0.00194071 0)
(1.00296 0.00233038 0)
(1.00323 0.0030021 0)
(1.00369 0.00332758 0)
(1.00428 0.0032302 0)
(1.00451 0.00309404 0)
(1.00436 0.00315258 0)
(1.00443 0.00315015 0)
(1.00502 0.00288832 0)
(1.00602 0.00239152 0)
(1.00708 0.0018866 0)
(1.00812 0.00145166 0)
(1.00921 0.0010699 0)
(1.01041 0.00066873 0)
(1.01159 0.000255946 0)
(1.01247 -0.000137155 0)
(1.01263 -0.000466752 0)
(1.00003 0.000388303 0)
(1.00028 0.00115749 0)
(1.00103 0.00187607 0)
(1.00215 0.00221349 0)
(1.00297 0.00257 0)
(1.00325 0.00321698 0)
(1.00361 0.00361589 0)
(1.00411 0.00358476 0)
(1.00436 0.0034145 0)
(1.00425 0.00339897 0)
(1.00424 0.00335763 0)
(1.00471 0.00308454 0)
(1.00562 0.00254955 0)
(1.00666 0.00193703 0)
(1.00771 0.00136395 0)
(1.00878 0.000839344 0)