/*--------------------------------*- C++ -*----------------------------------*\
| =========                 |                                                 |
| \\      /  F ield         | OpenFOAM: The Open Source CFD Toolbox           |
|  \\    /   O peration     | Version:  v2012                                 |
|   \\  /    A nd           | Website:  www.openfoam.com                      |
|    \\/     M anipulation  |                                                 |
\*---------------------------------------------------------------------------*/
FoamFile
{
    version     2.0;
    format      ascii;
    class       volVectorField;
    location    "3.3";
    object      U;
}
// * * * * * * * * * * * * * * * * * * * * * * * * * * * * * * * * * * * * * //

dimensions      [0 1 -1 0 0 0 0];


internalField   nonuniform List<vector> 
17600
(
(0.831828 0.00106252 0)
(1.15905 -0.00201219 0)
(0.852754 0.00282094 0)
(1.13788 -0.00541518 0)
(0.859369 0.00546276 0)
(1.13022 -0.00696799 0)
(0.855897 0.00532125 0)
(1.12865 -0.00215445 0)
(0.858125 0.00249293 0)
(1.12355 0.0016533 0)
(0.86424 0.00172772 0)
(1.11742 0.00174265 0)
(0.865842 0.00226614 0)
(1.11077 0.000939646 0)
(0.863488 0.00222217 0)
(1.10497 0.000650748 0)
(0.856492 0.00254899 0)
(1.10077 0.000533084 0)
(0.842782 0.00347241 0)
(1.09658 0.000764465 0)
(0.842512 0.00103692 0)
(1.14612 -0.00197147 0)
(0.863757 0.00278494 0)
(1.12354 -0.00526122 0)
(0.869848 0.0053301 0)
(1.11344 -0.00668578 0)
(0.866925 0.00512524 0)
(1.10887 -0.00193911 0)
(0.874021 0.00231859 0)
(1.1004 0.00181967 0)
(0.888088 0.00159542 0)
(1.08887 0.00192344 0)
(0.899572 0.00216789 0)
(1.07306 0.00118194 0)
(0.9109 0.00220253 0)
(1.05225 0.000874697 0)
(0.92488 0.0028533 0)
(1.02396 0.000506236 0)
(0.943146 0.00492538 0)
(0.981774 1.74282e-05 0)
(0.86321 0.00103098 0)
(1.12254 -0.00194395 0)
(0.884947 0.00277739 0)
(1.09953 -0.0051211 0)
(0.890934 0.00521471 0)
(1.0876 -0.00643597 0)
(0.890028 0.00493134 0)
(1.07784 -0.00181602 0)
(0.904189 0.00220935 0)
(1.0639 0.00180514 0)
(0.925625 0.00159166 0)
(1.04837 0.00188877 0)
(0.942769 0.00230202 0)
(1.03001 0.00109705 0)
(0.957285 0.00250958 0)
(1.00962 0.000700096 0)
(0.969013 0.00333588 0)
(0.989713 0.000350752 0)
(0.974807 0.00542337 0)
(0.971963 0.00100704 0)
(0.890777 0.00106446 0)
(1.09264 -0.00195468 0)
(0.912247 0.00280747 0)
(1.07127 -0.00503065 0)
(0.918299 0.00516776 0)
(1.05971 -0.00627665 0)
(0.919591 0.00487222 0)
(1.04671 -0.00185661 0)
(0.937963 0.00226279 0)
(1.03089 0.00159749 0)
(0.959549 0.00173291 0)
(1.01806 0.00168103 0)
(0.973044 0.00253126 0)
(1.00641 0.000897099 0)
(0.981127 0.00282843 0)
(0.995542 0.00053552 0)
(0.983992 0.00366998 0)
(0.987028 0.000363282 0)
(0.98101 0.00565768 0)
(0.979271 0.00210668 0)
(0.920498 0.00113115 0)
(1.06223 -0.00199932 0)
(0.939978 0.0028567 0)
(1.0448 -0.00497801 0)
(0.945544 0.00515721 0)
(1.03603 -0.00617611 0)
(0.947677 0.00490392 0)
(1.02366 -0.00198015 0)
(0.965213 0.00238605 0)
(1.01103 0.00136666 0)
(0.981568 0.0018688 0)
(1.00446 0.00150865 0)
(0.988759 0.0026753 0)
(1.00014 0.000794371 0)
(0.991323 0.00300409 0)
(0.995379 0.000505734 0)
(0.990286 0.00384988 0)
(0.990639 0.000493292 0)
(0.985932 0.00584137 0)
(0.984108 0.00312478 0)
(0.947602 0.00121552 0)
(1.03668 -0.00205919 0)
(0.963291 0.00290347 0)
(1.02465 -0.00494754 0)
(0.967598 0.00514722 0)
(1.0198 -0.006101 0)
(0.969073 0.0049472 0)
(1.01059 -0.00210406 0)
(0.98257 0.00248199 0)
(1.00301 0.00119366 0)
(0.99322 0.00193306 0)
(1.00136 0.00141169 0)
(0.996433 0.00272977 0)
(1.00083 0.000759978 0)
(0.996844 0.00309544 0)
(0.99824 0.000533794 0)
(0.99502 0.0039595 0)
(0.994377 0.000687225 0)
(0.990768 0.00598136 0)
(0.988419 0.0040566 0)
(0.968832 0.00129812 0)
(1.01888 -0.00211347 0)
(0.979882 0.00293049 0)
(1.01217 -0.00492503 0)
(0.982587 0.00511998 0)
(1.01074 -0.00603061 0)
(0.982778 0.00496336 0)
(1.00474 -0.00219008 0)
(0.99184 0.00252008 0)
(1.00105 0.00107602 0)
(0.99872 0.00194247 0)
(1.00174 0.00134883 0)
(1.0004 0.00273978 0)
(1.00257 0.000742351 0)
(1.00036 0.0031505 0)
(1.00079 0.000586787 0)
(0.998525 0.00401627 0)
(0.997431 0.000958842 0)
(0.994462 0.00603766 0)
(0.992171 0.00494974 0)
(0.983209 0.00136276 0)
(1.00865 -0.00214956 0)
(0.990059 0.00293114 0)
(1.00589 -0.00490122 0)
(0.991387 0.00507355 0)
(1.00658 -0.00595517 0)
(0.990463 0.00495072 0)
(1.00261 -0.00223369 0)
(0.996197 0.00251563 0)
(1.00089 0.000993552 0)
(1.00109 0.00192635 0)
(1.00235 0.00129609 0)
(1.00236 0.00272949 0)
(1.00366 0.000730736 0)
(1.00236 0.00317959 0)
(1.00241 0.000662764 0)
(1.00072 0.00402335 0)
(0.999523 0.00130113 0)
(0.996967 0.00601823 0)
(0.994919 0.00579716 0)
(0.991687 0.00140254 0)
(1.0038 -0.002166 0)
(0.995579 0.00290985 0)
(1.00327 -0.00487269 0)
(0.996016 0.00501339 0)
(1.00495 -0.0058715 0)
(0.994434 0.00491921 0)
(1.00198 -0.00224161 0)
(0.998139 0.00249003 0)
(1.00095 0.000934199 0)
(1.00203 0.00190008 0)
(1.00256 0.00124956 0)
(1.00318 0.00270595 0)
(1.0041 0.000728057 0)
(1.00334 0.00318 0)
(1.00326 0.000764823 0)
(1.00197 0.00398251 0)
(1.00081 0.00169461 0)
(0.998604 0.00595004 0)
(0.996806 0.00657231 0)
(0.996112 0.00141995 0)
(1.00188 -0.00216818 0)
(0.998356 0.00287587 0)
(1.00221 -0.00483917 0)
(0.998327 0.00494446 0)
(1.00432 -0.00577942 0)
(0.996496 0.00487482 0)
(1.0019 -0.00222168 0)
(0.999127 0.0024528 0)
(1.00104 0.000894826 0)
(1.00244 0.00186567 0)
(1.0026 0.0012118 0)
(1.00349 0.00266866 0)
(1.00424 0.000737823 0)
(1.00379 0.00314753 0)
(1.00371 0.000896582 0)
(1.00268 0.00389637 0)
(1.00162 0.00211914 0)
(0.999726 0.00586212 0)
(0.998162 0.00724718 0)
(0.998235 0.00142208 0)
(1.00117 -0.00216259 0)
(0.999751 0.00283701 0)
(1.00162 -0.00480093 0)
(0.99951 0.00486845 0)
(1.00394 -0.00567975 0)
(0.997698 0.00481714 0)
(1.00203 -0.00218118 0)
(0.999839 0.00240503 0)
(1.00124 0.000873503 0)
(1.00279 0.00182103 0)
(1.00271 0.00118731 0)
(1.00371 0.00261273 0)
(1.00436 0.000763747 0)
(1.00407 0.00307979 0)
(1.00402 0.00105847 0)
(1.00317 0.00377253 0)
(1.0022 0.00255483 0)
(1.00058 0.00578681 0)
(0.999222 0.00780142 0)
(0.999237 0.0014157 0)
(1.00085 -0.00215372 0)
(1.00051 0.00279739 0)
(1.00112 -0.00475794 0)
(1.00017 0.00478503 0)
(1.00357 -0.00557312 0)
(0.998514 0.00474233 0)
(1.00222 -0.00212507 0)
(1.00048 0.00234391 0)
(1.00157 0.000868794 0)
(1.0032 0.00176374 0)
(1.00296 0.0011801 0)
(1.00397 0.00253469 0)
(1.00455 0.000811487 0)
(1.00433 0.0029785 0)
(1.00429 0.00124631 0)
(1.00356 0.00362773 0)
(1.00268 0.00297916 0)
(1.00128 0.00575396 0)
(1.00009 0.00822897 0)
(0.999738 0.00140509 0)
(1.00065 -0.00214372 0)
(1.00094 0.00275814 0)
(1.0007 -0.00470997 0)
(1.00056 0.00469353 0)
(1.00323 -0.00545954 0)
(0.999106 0.00464691 0)
(1.00242 -0.00205517 0)
(1.00105 0.00226491 0)
(1.00196 0.000881347 0)
(1.00363 0.00169042 0)
(1.00328 0.00119273 0)
(1.00425 0.00243533 0)
(1.00477 0.000884697 0)
(1.00457 0.00284974 0)
(1.00454 0.00145236 0)
(1.00388 0.00348633 0)
(1.00306 0.00336871 0)
(1.00185 0.0057804 0)
(1.00081 0.00854044 0)
(1.00001 0.00139227 0)
(1.00052 -0.00213323 0)
(1.0012 0.00271874 0)
(1.00039 -0.00465671 0)
(1.00079 0.00459369 0)
(1.00295 -0.00533838 0)
(0.999524 0.00452958 0)
(1.00257 -0.00197172 0)
(1.00152 0.00216531 0)
(1.00231 0.000911328 0)
(1.00401 0.00159793 0)
(1.00359 0.00122645 0)
(1.00451 0.00231649 0)
(1.00499 0.000979687 0)
(1.00478 0.00270348 0)
(1.00474 0.00166404 0)
(1.00415 0.00337324 0)
(1.00337 0.00370606 0)
(1.00232 0.00586654 0)
(1.0014 0.00875926 0)
(1.00015 0.00137802 0)
(1.00044 -0.00212228 0)
(1.00134 0.00267812 0)
(1.0002 -0.00459772 0)
(1.00091 0.00448516 0)
(1.00277 -0.00520823 0)
(0.999803 0.00439064 0)
(1.00266 -0.00187411 0)
(1.00186 0.00204387 0)
(1.00256 0.000959575 0)
(1.00429 0.00148406 0)
(1.00384 0.00128094 0)
(1.0047 0.00217927 0)
(1.00516 0.00109011 0)
(1.00495 0.00255284 0)
(1.00489 0.00186668 0)
(1.00436 0.00330512 0)
(1.00361 0.00398924 0)
(1.00271 0.00600165 0)
(1.00189 0.00891377 0)
(1.00023 0.00136256 0)
(1.0004 -0.00211061 0)
(1.0014 0.00263513 0)
(1.00011 -0.00453234 0)
(1.00097 0.00436709 0)
(1.00265 -0.00506734 0)
(0.999987 0.00423061 0)
(1.00271 -0.00176018 0)
(1.00209 0.00189826 0)
(1.00273 0.00102859 0)
(1.00449 0.00134795 0)
(1.00401 0.00135362 0)
(1.00484 0.00202673 0)
(1.00528 0.00120833 0)
(1.00507 0.00241282 0)
(1.005 0.00204518 0)
(1.00452 0.00328699 0)
(1.00381 0.00422886 0)
(1.00304 0.00616738 0)
(1.00231 0.00902921 0)
(1.00027 0.00134593 0)
(1.00039 -0.00209781 0)
(1.00142 0.00258867 0)
(1.00008 -0.00445979 0)
(1.001 0.00423838 0)
(1.00259 -0.00491426 0)
(1.00011 0.00404951 0)
(1.00271 -0.00162743 0)
(1.00227 0.00172666 0)
(1.00282 0.00111875 0)
(1.00461 0.00119079 0)
(1.00412 0.00143941 0)
(1.00492 0.00186695 0)
(1.00535 0.00132133 0)
(1.00516 0.00229986 0)
(1.00508 0.00218735 0)
(1.00467 0.00331589 0)
(1.004 0.00443784 0)
(1.00334 0.0063414 0)
(1.00269 0.00912095 0)
(1.0003 0.00132816 0)
(1.00039 -0.00208365 0)
(1.00142 0.00253808 0)
(1.00008 -0.00437972 0)
(1.001 0.00409826 0)
(1.00257 -0.00474807 0)
(1.00022 0.00384774 0)
(1.00269 -0.00147591 0)
(1.0024 0.00153157 0)
(1.00287 0.00122606 0)
(1.00469 0.00101566 0)
(1.00419 0.00153206 0)
(1.00497 0.00171135 0)
(1.0054 0.00141279 0)
(1.00523 0.00222598 0)
(1.00515 0.0022911 0)
(1.0048 0.00338192 0)
(1.00417 0.00462811 0)
(1.00363 0.00650491 0)
(1.00304 0.00919143 0)
(1.00031 0.00130924 0)
(1.00039 -0.00206758 0)
(1.00141 0.00248236 0)
(1.00009 -0.00429131 0)
(1.00101 0.00394551 0)
(1.00255 -0.00456726 0)
(1.00031 0.00362406 0)
(1.00266 -0.00130348 0)
(1.00251 0.00131252 0)
(1.00288 0.00134938 0)
(1.00475 0.00082867 0)
(1.00424 0.00162036 0)
(1.005 0.00157208 0)
(1.00544 0.00146864 0)
(1.00529 0.00219603 0)
(1.00521 0.00236786 0)
(1.00494 0.00347284 0)
(1.00435 0.00481614 0)
(1.00391 0.00665452 0)
(1.00339 0.00924117 0)
(1.00032 0.0012889 0)
(1.00039 -0.00204851 0)
(1.00139 0.00242005 0)
(1.00011 -0.00419293 0)
(1.00102 0.00377765 0)
(1.00255 -0.00436924 0)
(1.0004 0.00337652 0)
(1.00261 -0.00110865 0)
(1.00261 0.00107024 0)
(1.00288 0.00148511 0)
(1.00479 0.000639499 0)
(1.00428 0.00169199 0)
(1.00502 0.0014619 0)
(1.00547 0.00147888 0)
(1.00534 0.00220243 0)
(1.00527 0.00243279 0)
(1.00508 0.00357165 0)
(1.00453 0.00501549 0)
(1.00419 0.00680148 0)
(1.00373 0.00927621 0)
(1.00033 0.00126702 0)
(1.0004 -0.00202604 0)
(1.00136 0.00235019 0)
(1.00013 -0.0040833 0)
(1.00103 0.00359255 0)
(1.00255 -0.00415284 0)
(1.0005 0.00310544 0)
(1.00256 -0.000895169 0)
(1.00272 0.000812396 0)
(1.00287 0.00162191 0)
(1.00483 0.000458725 0)
(1.00431 0.00173534 0)
(1.00502 0.00139105 0)
(1.0055 0.00144341 0)
(1.0054 0.00222777 0)
(1.00534 0.00249904 0)
(1.00523 0.00366018 0)
(1.00472 0.00522451 0)
(1.00447 0.00696068 0)
(1.00407 0.00930684 0)
(1.00033 0.00124379 0)
(1.00041 -0.00199961 0)
(1.00134 0.00227123 0)
(1.00016 -0.00396177 0)
(1.00104 0.00339091 0)
(1.00255 -0.00392106 0)
(1.0006 0.00281596 0)
(1.00251 -0.000670484 0)
(1.00282 0.000547249 0)
(1.00286 0.00175155 0)
(1.00486 0.00029769 0)
(1.00435 0.00173572 0)
(1.00502 0.00136147 0)
(1.00554 0.0013749 0)
(1.00546 0.00225475 0)
(1.00541 0.0025774 0)
(1.0054 0.00373126 0)
(1.00493 0.00542966 0)
(1.00475 0.00714016 0)
(1.00441 0.00934538 0)
(1.00033 0.00121895 0)
(1.00042 -0.00196712 0)
(1.00131 0.00218096 0)
(1.00018 -0.00382696 0)
(1.00105 0.00317097 0)
(1.00255 -0.00367103 0)
(1.0007 0.00250573 0)
(1.00246 -0.000432513 0)
(1.00292 0.000276424 0)
(1.00286 0.00186747 0)
(1.00487 0.00016697 0)
(1.00439 0.0016897 0)
(1.00502 0.00136616 0)
(1.00558 0.00129498 0)
(1.00553 0.00226555 0)
(1.00549 0.00267118 0)
(1.00558 0.00378042 0)
(1.00515 0.00561544 0)
(1.00503 0.00733297 0)
(1.00475 0.0094038 0)
(1.00032 0.0011905 0)
(1.00044 -0.00192476 0)
(1.00128 0.00207484 0)
(1.00022 -0.00367467 0)
(1.00106 0.00292612 0)
(1.00255 -0.00339847 0)
(1.0008 0.00217207 0)
(1.00241 -0.000185705 0)
(1.00301 1.02588e-05 0)
(1.00286 0.00195527 0)
(1.00488 7.51514e-05 0)
(1.00445 0.00159378 0)
(1.005 0.00139453 0)
(1.00563 0.00120986 0)
(1.00561 0.00225305 0)
(1.00558 0.00276826 0)
(1.00577 0.00380461 0)
(1.0054 0.00575968 0)
(1.00531 0.00752497 0)
(1.00508 0.00950179 0)
(1.0003 0.00116193 0)
(1.00046 -0.00187814 0)
(1.00124 0.00195797 0)
(1.00025 -0.00351351 0)
(1.00107 0.00266969 0)
(1.00256 -0.00312553 0)
(1.0009 0.00184554 0)
(1.00236 3.28579e-05 0)
(1.0031 -0.000215036 0)
(1.00288 0.00198217 0)
(1.00488 3.88259e-05 0)
(1.00451 0.00142104 0)
(1.00499 0.00146035 0)
(1.00568 0.00109764 0)
(1.0057 0.00223825 0)
(1.00568 0.00283944 0)
(1.00597 0.00381208 0)
(1.00568 0.0057733 0)
(1.00561 0.00767805 0)
(1.00541 0.00962713 0)
(1.00028 0.00113046 0)
(1.00049 -0.00181976 0)
(1.0012 0.00182332 0)
(1.00029 -0.00333657 0)
(1.00107 0.00239615 0)
(1.00257 -0.00284257 0)
(1.001 0.00151547 0)
(1.00232 0.000240752 0)
(1.00319 -0.000416031 0)
(1.0029 0.00196442 0)
(1.00486 4.04537e-05 0)
(1.00459 0.00122885 0)
(1.00497 0.00152539 0)
(1.00573 0.00100544 0)
(1.00581 0.00218044 0)
(1.00578 0.00291311 0)
(1.00617 0.00378731 0)
(1.00598 0.00568791 0)
(1.00593 0.00768609 0)
(1.00576 0.00960853 0)
(1.00025 0.0010946 0)
(1.00053 -0.00174666 0)
(1.00115 0.00167092 0)
(1.00033 -0.00314404 0)
(1.00107 0.00210299 0)
(1.00257 -0.00254941 0)
(1.0011 0.00118242 0)
(1.00229 0.000438153 0)
(1.00326 -0.000591211 0)
(1.00294 0.00191535 0)
(1.00483 6.79701e-05 0)
(1.00468 0.00105425 0)
(1.00496 0.00156682 0)
(1.00577 0.000972764 0)
(1.00592 0.00207384 0)
(1.00589 0.0030087 0)
(1.00636 0.00382885 0)
(1.00629 0.00565413 0)
(1.00626 0.00770832 0)
(1.00613 0.00963748 0)
(1.00021 0.00105928 0)
(1.00057 -0.00166729 0)
(1.00109 0.00151212 0)
(1.00038 -0.00294893 0)
(1.00108 0.00181479 0)
(1.00258 -0.0022823 0)
(1.00119 0.000890849 0)
(1.00225 0.000584763 0)
(1.00332 -0.000702364 0)
(1.00299 0.00181423 0)
(1.00479 0.000136391 0)
(1.00477 0.000852305 0)
(1.00494 0.00161459 0)
(1.00581 0.000995007 0)
(1.00604 0.00201576 0)
(1.00603 0.00314136 0)
(1.00655 0.00400002 0)
(1.00662 0.00568475 0)
(1.00661 0.00778267 0)
(1.00651 0.00969413 0)
(1.00017 0.00101852 0)
(1.00061 -0.00157078 0)
(1.00104 0.0013348 0)
(1.00042 -0.00274335 0)
(1.00108 0.00152268 0)
(1.00259 -0.00202903 0)
(1.00129 0.000622641 0)
(1.00222 0.000699807 0)
(1.00337 -0.000784895 0)
(1.00305 0.00169218 0)
(1.00474 0.00022945 0)
(1.00486 0.000653032 0)
(1.00494 0.00165463 0)
(1.00584 0.00110795 0)
(1.00618 0.00201649 0)
(1.00618 0.00332086 0)
(1.00674 0.0042128 0)
(1.00695 0.00577136 0)
(1.00698 0.00784139 0)
(1.00689 0.00975639 0)
(1.00013 0.000977161 0)
(1.00064 -0.00146721 0)
(1.00098 0.00115078 0)
(1.00046 -0.00254849 0)
(1.00108 0.00124414 0)
(1.0026 -0.00180419 0)
(1.00138 0.000379998 0)
(1.00219 0.000783012 0)
(1.00342 -0.000846067 0)
(1.00311 0.0015525 0)
(1.00468 0.000360557 0)
(1.00495 0.000526775 0)
(1.00496 0.00171126 0)
(1.00587 0.00130787 0)
(1.00633 0.00205281 0)
(1.00636 0.00348002 0)
(1.00693 0.00442455 0)
(1.00727 0.00586377 0)
(1.00736 0.00785171 0)
(1.00727 0.00976047 0)
(1.00009 0.000934542 0)
(1.00067 -0.00135682 0)
(1.00093 0.000963234 0)
(1.00049 -0.00236875 0)
(1.00109 0.000986062 0)
(1.0026 -0.00161454 0)
(1.00147 0.000167526 0)
(1.00217 0.000834426 0)
(1.00345 -0.000866932 0)
(1.00318 0.00139997 0)
(1.00462 0.000540363 0)
(1.00504 0.000485261 0)
(1.005 0.00178198 0)
(1.0059 0.00155426 0)
(1.00647 0.0021217 0)
(1.00656 0.00358331 0)
(1.00712 0.00461197 0)
(1.00759 0.00594068 0)
(1.00775 0.00781749 0)
(1.00765 0.00969444 0)
(1.00006 0.000890636 0)
(1.00068 -0.00124374 0)
(1.00088 0.000782123 0)
(1.00051 -0.00221006 0)
(1.0011 0.000742397 0)
(1.0026 -0.00144896 0)
(1.00157 -2.97289e-05 0)
(1.00214 0.000878353 0)
(1.00348 -0.000846307 0)
(1.00327 0.00126234 0)
(1.00456 0.000743655 0)
(1.00512 0.000495701 0)
(1.00507 0.00181854 0)
(1.00592 0.00180344 0)
(1.00661 0.00221084 0)
(1.00677 0.00364063 0)
(1.00732 0.00475602 0)
(1.0079 0.00600082 0)
(1.00814 0.00774567 0)
(1.00804 0.00956574 0)
(1.00003 0.000847031 0)
(1.00069 -0.00113314 0)
(1.00084 0.000619617 0)
(1.00053 -0.00208858 0)
(1.00112 0.000517357 0)
(1.00259 -0.00131653 0)
(1.00166 -0.000209155 0)
(1.00212 0.000917702 0)
(1.0035 -0.000754901 0)
(1.00336 0.00115687 0)
(1.00451 0.000964548 0)
(1.00519 0.000552246 0)
(1.00515 0.00181582 0)
(1.00595 0.00202196 0)
(1.00674 0.00231128 0)
(1.00698 0.00366295 0)
(1.00753 0.00484846 0)
(1.00819 0.00603424 0)
(1.00852 0.00763857 0)
(1.00842 0.00938133 0)
(1.00001 0.000804193 0)
(1.0007 -0.00102495 0)
(1.0008 0.000473428 0)
(1.00054 -0.0019872 0)
(1.00114 0.000300036 0)
(1.00258 -0.00120241 0)
(1.00176 -0.00036865 0)
(1.0021 0.000954269 0)
(1.00351 -0.000591112 0)
(1.00346 0.00107938 0)
(1.00447 0.00117962 0)
(1.00524 0.000654719 0)
(1.00524 0.00179178 0)
(1.00598 0.00219724 0)
(1.00686 0.00242638 0)
(1.00721 0.00367066 0)
(1.00775 0.00490766 0)
(1.00848 0.00605277 0)
(1.00889 0.00751997 0)
(1.00881 0.00916837 0)
(0.999991 0.00076281 0)
(1.00069 -0.000930847 0)
(1.00076 0.00036181 0)
(1.00055 -0.00190642 0)
(1.00117 8.9144e-05 0)
(1.00257 -0.00108622 0)
(1.00186 -0.00049556 0)
(1.0021 0.00100293 0)
(1.00352 -0.000387336 0)
(1.00356 0.00100596 0)
(1.00444 0.00134832 0)
(1.00527 0.000784641 0)
(1.00534 0.00175802 0)
(1.00602 0.00232373 0)
(1.00696 0.00255082 0)
(1.00743 0.00367635 0)
(1.00798 0.00494594 0)
(1.00875 0.00606771 0)
(1.00925 0.00740378 0)
(1.0092 0.00893955 0)
(0.999974 0.00072546 0)
(1.00068 -0.000854432 0)
(1.00072 0.000279235 0)
(1.00055 -0.00184274 0)
(1.0012 -0.000106162 0)
(1.00255 -0.000978632 0)
(1.00196 -0.000555377 0)
(1.00211 0.00105526 0)
(1.00352 -0.000163513 0)
(1.00366 0.000939979 0)
(1.00442 0.00146634 0)
(1.00529 0.000927905 0)
(1.00545 0.00173319 0)
(1.00608 0.00241257 0)
(1.00707 0.00268243 0)
(1.00765 0.00368951 0)
(1.00823 0.00496817 0)
(1.00902 0.00607899 0)
(1.00959 0.00729015 0)
(1.00957 0.00869624 0)
(0.999958 0.000688782 0)
(1.00067 -0.000791903 0)
(1.00067 0.000215092 0)
(1.00054 -0.00176167 0)
(1.00124 -0.000291968 0)
(1.00254 -0.000860383 0)
(1.00207 -0.000567585 0)
(1.00213 0.00107805 0)
(1.00351 6.47038e-05 0)
(1.00376 0.000887035 0)
(1.00441 0.00154136 0)
(1.00529 0.00108038 0)
(1.00555 0.00172878 0)
(1.00615 0.00247963 0)
(1.00717 0.00281232 0)
(1.00787 0.00371047 0)
(1.00848 0.00496608 0)
(1.00928 0.00607185 0)
(1.00991 0.00717132 0)
(1.00994 0.00844063 0)
(0.999945 0.000654772 0)
(1.00065 -0.000752419 0)
(1.00063 0.000178614 0)
(1.00052 -0.00165187 0)
(1.00128 -0.00046277 0)
(1.00254 -0.000726761 0)
(1.00217 -0.000553985 0)
(1.00217 0.00106092 0)
(1.00349 0.000280988 0)
(1.00384 0.00085378 0)
(1.00441 0.0015789 0)
(1.00529 0.00123335 0)
(1.00564 0.00174321 0)
(1.00623 0.00253207 0)
(1.00727 0.00292907 0)
(1.00808 0.00373568 0)
(1.00874 0.00493652 0)
(1.00954 0.00603808 0)
(1.01021 0.00704917 0)
(1.01028 0.00818607 0)
(0.999932 0.000625137 0)
(1.00064 -0.000736435 0)
(1.0006 0.00015421 0)
(1.0005 -0.0015055 0)
(1.00132 -0.000599856 0)
(1.00254 -0.000606446 0)
(1.00227 -0.000503559 0)
(1.00222 0.00102456 0)
(1.00348 0.00047229 0)
(1.00392 0.000851172 0)
(1.00443 0.001595 0)
(1.00528 0.00138305 0)
(1.00574 0.00178076 0)
(1.00632 0.00257639 0)
(1.00737 0.00302949 0)
(1.00828 0.00376028 0)
(1.009 0.00488415 0)
(1.0098 0.0059763 0)
(1.01049 0.00692525 0)
(1.0106 0.00794082 0)
(0.999921 0.000597499 0)
(1.00062 -0.000735799 0)
(1.00057 0.000129617 0)
(1.00047 -0.00132322 0)
(1.00137 -0.000700895 0)
(1.00256 -0.00050617 0)
(1.00237 -0.000422405 0)
(1.00228 0.000983276 0)
(1.00346 0.000639847 0)
(1.00399 0.000883377 0)
(1.00446 0.00160366 0)
(1.00528 0.00152192 0)
(1.00583 0.00183905 0)
(1.00643 0.00261285 0)
(1.00748 0.00310973 0)
(1.00847 0.0037757 0)
(1.00926 0.00481133 0)
(1.01006 0.00588464 0)
(1.01076 0.00679315 0)
(1.0109 0.00770327 0)
(0.999912 0.000570935 0)
(1.00061 -0.000742047 0)
(1.00055 9.46409e-05 0)
(1.00045 -0.00111567 0)
(1.00142 -0.00076027 0)
(1.00259 -0.000418336 0)
(1.00246 -0.000314365 0)
(1.00234 0.000947872 0)
(1.00345 0.000784269 0)
(1.00405 0.000944569 0)
(1.0045 0.0016137 0)
(1.00529 0.00164146 0)
(1.00591 0.00190917 0)
(1.00654 0.00264297 0)
(1.00759 0.00317148 0)
(1.00865 0.00378158 0)
(1.00952 0.00472315 0)
(1.01033 0.00576469 0)
(1.01102 0.00664628 0)
(1.01118 0.00747052 0)
(0.999904 0.000543589 0)
(1.0006 -0.000747697 0)
(1.00055 3.91914e-05 0)
(1.00042 -0.000898353 0)
(1.00146 -0.000765013 0)
(1.00263 -0.000332837 0)
(1.00255 -0.000185704 0)
(1.00242 0.000922709 0)
(1.00345 0.000900981 0)
(1.00411 0.00101996 0)
(1.00454 0.0016287 0)
(1.0053 0.00173899 0)
(1.00599 0.00197919 0)
(1.00666 0.00266968 0)
(1.0077 0.00322203 0)
(1.00883 0.00378583 0)
(1.00978 0.00462713 0)
(1.0106 0.00561775 0)
(1.01128 0.00647636 0)
(1.01144 0.00723485 0)
(0.999898 0.000514649 0)
(1.0006 -0.000745821 0)
(1.00056 -4.65885e-05 0)
(1.0004 -0.00068029 0)
(1.00151 -0.000710064 0)
(1.00268 -0.000246521 0)
(1.00265 -3.30476e-05 0)
(1.0025 0.000921864 0)
(1.00346 0.000995297 0)
(1.00416 0.00109982 0)
(1.0046 0.00165182 0)
(1.00532 0.00182032 0)
(1.00607 0.0020396 0)
(1.00678 0.00268823 0)
(1.00782 0.00326265 0)
(1.00899 0.00379207 0)
(1.01003 0.00452841 0)
(1.01088 0.00544437 0)
(1.01154 0.00627491 0)
(1.01168 0.00698566 0)
(0.999893 0.000483745 0)
(1.00059 -0.000733651 0)
(1.00058 -0.000157423 0)
(1.00039 -0.000466641 0)
(1.00155 -0.000604887 0)
(1.00274 -0.000160265 0)
(1.00274 0.000134316 0)
(1.00258 0.000953939 0)
(1.00348 0.00107648 0)
(1.00421 0.00118076 0)
(1.00466 0.00168639 0)
(1.00535 0.00189702 0)
(1.00615 0.00209345 0)
(1.00692 0.00269381 0)
(1.00795 0.00328828 0)
(1.00915 0.00379714 0)
(1.01025 0.00443159 0)
(1.01115 0.00525137 0)
(1.01181 0.00604023 0)
(1.01192 0.00671492 0)
(0.99989 0.000453657 0)
(1.00058 -0.000715955 0)
(1.00062 -0.000275494 0)
(1.0004 -0.000259756 0)
(1.00159 -0.000451513 0)
(1.00282 -7.05301e-05 0)
(1.00284 0.000295064 0)
(1.00266 0.00101328 0)
(1.00351 0.00114968 0)
(1.00427 0.00125466 0)
(1.00472 0.00172716 0)
(1.00538 0.00197309 0)
(1.00623 0.00214711 0)
(1.00705 0.0026881 0)
(1.00808 0.00329282 0)
(1.00929 0.00379546 0)
(1.01046 0.00434354 0)
(1.01141 0.0050567 0)
(1.01207 0.00578562 0)
(1.01216 0.0064264 0)
(0.99989 0.000425369 0)
(1.00057 -0.000683086 0)
(1.00068 -0.000384616 0)
(1.00043 -5.98249e-05 0)
(1.00163 -0.000258058 0)
(1.0029 2.66561e-05 0)
(1.00295 0.000450819 0)
(1.00275 0.00110475 0)
(1.00354 0.00123257 0)
(1.00433 0.00132625 0)
(1.0048 0.00177047 0)
(1.00543 0.00204876 0)
(1.0063 0.00220256 0)
(1.00719 0.002673 0)
(1.00823 0.00326796 0)
(1.00944 0.00377398 0)
(1.01065 0.00425851 0)
(1.01166 0.00486785 0)
(1.01232 0.00552002 0)
(1.01239 0.00612048 0)
(0.999891 0.000397137 0)
(1.00056 -0.000614424 0)
(1.00075 -0.000449882 0)
(1.00048 0.000110305 0)
(1.00167 -6.08952e-05 0)
(1.00298 0.000110033 0)
(1.00306 0.00058167 0)
(1.00283 0.00120725 0)
(1.00357 0.00132129 0)
(1.0044 0.00139519 0)
(1.00488 0.00181145 0)
(1.00547 0.00212126 0)
(1.00637 0.00226116 0)
(1.00733 0.0026523 0)
(1.00839 0.00321368 0)
(1.00959 0.00372353 0)
(1.01082 0.00416534 0)
(1.01187 0.00468146 0)
(1.01257 0.00524512 0)
(1.01262 0.00579265 0)
(0.999894 0.000351269 0)
(1.00054 -0.000492982 0)
(1.00083 -0.000473289 0)
(1.00054 0.000229961 0)
(1.0017 0.000122043 0)
(1.00306 0.000181048 0)
(1.00318 0.000685716 0)
(1.00292 0.00131564 0)
(1.0036 0.00141826 0)
(1.00446 0.00146158 0)
(1.00497 0.00184476 0)
(1.00553 0.00218033 0)
(1.00643 0.00231557 0)
(1.00745 0.00262487 0)
(1.00855 0.0031324 0)
(1.00974 0.00363968 0)
(1.01098 0.00405602 0)
(1.01207 0.00449549 0)
(1.01279 0.0049688 0)
(1.01284 0.00545135 0)
(0.999901 0.000325033 0)
(1.00052 -0.00038785 0)
(1.00091 -0.000475749 0)
(1.00062 0.000348022 0)
(1.00173 0.000332682 0)
(1.00314 0.000279216 0)
(1.00331 0.000782918 0)
(1.00301 0.00143675 0)
(1.00363 0.0015358 0)
(1.00451 0.00153628 0)
(1.00506 0.00188192 0)
(1.00558 0.00223654 0)
(1.00648 0.00237591 0)
(1.00756 0.00260746 0)
(1.0087 0.0030422 0)
(1.00989 0.00353235 0)
(1.01113 0.00393233 0)
(1.01223 0.00431233 0)
(1.01298 0.00470053 0)
(1.01304 0.00510924 0)
(0.999908 0.000308362 0)
(1.0005 -0.000283077 0)
(1.001 -0.000452096 0)
(1.00072 0.000452409 0)
(1.00175 0.000550389 0)
(1.0032 0.000400083 0)
(1.00345 0.000864911 0)
(1.00311 0.00155356 0)
(1.00365 0.00167067 0)
(1.00456 0.00161988 0)
(1.00515 0.00191994 0)
(1.00565 0.00228767 0)
(1.00652 0.00243478 0)
(1.00764 0.00259797 0)
(1.00884 0.00294099 0)
(1.01004 0.00339326 0)
(1.01126 0.00377854 0)
(1.01237 0.00411616 0)
(1.01314 0.0044313 0)
(1.01321 0.00476466 0)
(0.999918 0.000271533 0)
(1.00047 -0.0001235 0)
(1.00108 -0.000400602 0)
(1.00084 0.000521167 0)
(1.00178 0.000755846 0)
(1.00326 0.000545339 0)
(1.00359 0.000936619 0)
(1.00321 0.00165463 0)
(1.00367 0.00181335 0)
(1.00459 0.00171357 0)
(1.00524 0.0019459 0)
(1.00572 0.00232382 0)
(1.00656 0.00248262 0)
(1.0077 0.00259311 0)
(1.00896 0.00283341 0)
(1.01018 0.00322488 0)
(1.0114 0.00359019 0)
(1.01249 0.00390007 0)
(1.01327 0.00415903 0)
(1.01335 0.00442276 0)
(0.999929 0.000243524 0)
(1.00044 4.30376e-05 0)
(1.00114 -0.000318044 0)
(1.00096 0.000585751 0)
(1.00181 0.000963156 0)
(1.0033 0.000724217 0)
(1.00372 0.00101731 0)
(1.00333 0.00174939 0)
(1.00368 0.00196532 0)
(1.0046 0.0018333 0)
(1.00531 0.00197057 0)
(1.00579 0.0023448 0)
(1.00658 0.00252456 0)
(1.00773 0.00259618 0)
(1.00905 0.0027342 0)
(1.01031 0.00303979 0)
(1.01152 0.00336779 0)
(1.0126 0.0036547 0)
(1.01337 0.0038727 0)
(1.01345 0.00407613 0)
(0.999942 0.000222334 0)
(1.00041 0.000187982 0)
(1.0012 -0.000204777 0)
(1.00109 0.000649265 0)
(1.00185 0.00116091 0)
(1.00332 0.000925939 0)
(1.00384 0.00111816 0)
(1.00345 0.00184546 0)
(1.00369 0.00212422 0)
(1.00459 0.00197718 0)
(1.00537 0.00200588 0)
(1.00586 0.00234194 0)
(1.0066 0.0025517 0)
(1.00773 0.00260098 0)
(1.00909 0.0026493 0)
(1.0104 0.00285093 0)
(1.01163 0.00311792 0)
(1.01269 0.00337656 0)
(1.01344 0.00356479 0)
(1.01352 0.00372076 0)
(0.999955 0.000216416 0)
(1.00038 0.000296341 0)
(1.00124 -6.1629e-05 0)
(1.00122 0.000721852 0)
(1.00189 0.00135878 0)
(1.00332 0.00114956 0)
(1.00395 0.00124191 0)
(1.00358 0.00193433 0)
(1.00371 0.00228233 0)
(1.00455 0.00213578 0)
(1.0054 0.00206643 0)
(1.00593 0.00232653 0)
(1.00662 0.00255904 0)
(1.00771 0.00260638 0)
(1.00909 0.00258388 0)
(1.01046 0.00267388 0)
(1.01171 0.00285723 0)
(1.01276 0.00306868 0)
(1.01349 0.00322768 0)
(1.01356 0.00334651 0)
(0.999967 0.000207546 0)
(1.00035 0.000417124 0)
(1.00128 0.000100156 0)
(1.00135 0.000797198 0)
(1.00194 0.00154441 0)
(1.00331 0.00139578 0)
(1.00404 0.00139826 0)
(1.00371 0.00202619 0)
(1.00373 0.00244466 0)
(1.0045 0.00231248 0)
(1.0054 0.00215743 0)
(1.00598 0.00231023 0)
(1.00664 0.00253347 0)
(1.00767 0.00258809 0)
(1.00904 0.00251811 0)
(1.01046 0.00250165 0)
(1.01175 0.0025879 0)
(1.01281 0.00272935 0)
(1.01352 0.00285084 0)
(1.01356 0.00293809 0)
(0.99998 0.000198766 0)
(1.00032 0.000547475 0)
(1.00129 0.000270344 0)
(1.00148 0.000890559 0)
(1.002 0.00171711 0)
(1.00329 0.00166638 0)
(1.0041 0.00158453 0)
(1.00384 0.00212483 0)
(1.00376 0.00259174 0)
(1.00442 0.00250641 0)
(1.00535 0.00227381 0)
(1.00601 0.00231199 0)
(1.00666 0.00248246 0)
(1.00761 0.00254382 0)
(1.00895 0.00244367 0)
(1.0104 0.00234214 0)
(1.01174 0.0023216 0)
(1.01282 0.00237997 0)
(1.01352 0.00244709 0)
(1.01355 0.00249981 0)
(0.999992 0.000208146 0)
(1.0003 0.000659514 0)
(1.0013 0.000465115 0)
(1.00161 0.00100377 0)
(1.00207 0.00187196 0)
(1.00326 0.00193442 0)
(1.00414 0.00179229 0)
(1.00396 0.00223323 0)
(1.0038 0.00271953 0)
(1.00433 0.00270924 0)
(1.00526 0.00242407 0)
(1.00599 0.00234657 0)
(1.00665 0.00242965 0)
(1.00754 0.00247659 0)
(1.00883 0.00235231 0)
(1.01028 0.00218433 0)
(1.01166 0.0020578 0)
(1.01277 0.00202416 0)
(1.01348 0.00202162 0)
(1.01349 0.00202966 0)
(1 0.000215033 0)
(1.00027 0.00077449 0)
(1.00129 0.000683047 0)
(1.00172 0.00113975 0)
(1.00215 0.00202958 0)
(1.00322 0.00220882 0)
(1.00414 0.00204664 0)
(1.00405 0.00237548 0)
(1.00384 0.00285626 0)
(1.00424 0.0029119 0)
(1.00513 0.00261262 0)
(1.00591 0.00241863 0)
(1.0066 0.00239747 0)
(1.00745 0.00239358 0)
(1.00867 0.00224446 0)
(1.01009 0.00201667 0)
(1.0115 0.00179859 0)
(1.01265 0.00166518 0)
(1.01338 0.0015853 0)
(1.01339 0.00153666 0)
(1.00001 0.000230682 0)
(1.00025 0.000879829 0)
(1.00127 0.000908512 0)
(1.00181 0.00130096 0)
(1.00223 0.00219168 0)
(1.00318 0.00248571 0)
(1.00411 0.00233519 0)
(1.00412 0.0025526 0)
(1.00388 0.00299933 0)
(1.00414 0.00310845 0)
(1.00496 0.00282039 0)
(1.00578 0.00252977 0)
(1.00651 0.00239234 0)
(1.00732 0.00230951 0)
(1.00848 0.00211919 0)
(1.00985 0.0018351 0)
(1.01127 0.00153333 0)
(1.01245 0.00130002 0)
(1.01321 0.00113314 0)
(1.01324 0.00101972 0)
(1.00002 0.000262493 0)
(1.00024 0.000971438 0)
(1.00124 0.00113499 0)
(1.00188 0.00148236 0)
(1.00232 0.00235108 0)
(1.00314 0.00276105 0)
(1.00405 0.00264574 0)
(1.00415 0.00277069 0)
(1.0039 0.00315639 0)
(1.00404 0.00330482 0)
(1.00475 0.0030397 0)
(1.00557 0.00267855 0)
(1.00634 0.00241911 0)
(1.00714 0.00223666 0)
(1.00823 0.00198085 0)
(1.00955 0.0016357 0)
(1.01096 0.00125062 0)
(1.01217 0.000916754 0)
(1.01296 0.000654834 0)
(1.01302 0.000466444 0)
(1.00003 0.000292601 0)
(1.00023 0.00107082 0)
(1.0012 0.00136019 0)
(1.00194 0.00169661 0)
(1.0024 0.00252973 0)
(1.0031 0.00303742 0)
(1.00396 0.00298789 0)
(1.00414 0.00303415 0)
(1.00391 0.00334833 0)
(1.00392 0.0035102 0)
(1.00452 0.0032779 0)
(1.00531 0.00286317 0)
(1.00609 0.00248701 0)
(1.00688 0.0021866 0)
(1.00791 0.00184193 0)
(1.00916 0.00142139 0)
(1.01055 0.000945018 0)
(1.01178 0.000506632 0)
(1.01261 0.000136877 0)
(1.01271 -0.000143113 0)
(1.00003 0.000330503 0)
(1.00022 0.00116508 0)
(1.00115 0.00159208 0)
(1.00197 0.00193766 0)
(1.00247 0.00272066 0)
(1.00307 0.00330476 0)
(1.00385 0.00333886 0)
(1.00408 0.00334247 0)
(1.00388 0.00357552 0)
(1.0038 0.00374267 0)
(1.00425 0.00353792 0)
(1.00497 0.00309444 0)
(1.00576 0.00260802 0)
(1.00653 0.00217567 0)
(1.0075 0.00171984 0)
(1.00869 0.00119771 0)
(1.01003 0.000616534 0)
(1.01126 5.5756e-05 0)
(1.01214 -0.000439478 0)
(1.01228 -0.00083572 0)
(1.00003 0.000380381 0)
(1.00021 0.00124822 0)
(1.0011 0.00182043 0)
(1.00197 0.00219855 0)
(1.00253 0.00293034 0)
(1.00304 0.00355984 0)
(1.00373 0.0036984 0)
(1.00399 0.00369214 0)
(1.00382 0.00384997 0)
(1.00365 0.00401273 0)