/*--------------------------------*- C++ -*----------------------------------*\
| =========                 |                                                 |
| \\      /  F ield         | OpenFOAM: The Open Source CFD Toolbox           |
|  \\    /   O peration     | Version:  v2012                                 |
|   \\  /    A nd           | Website:  www.openfoam.com                      |
|    \\/     M anipulation  |                                                 |
\*---------------------------------------------------------------------------*/
FoamFile
{
    version     2.0;
    format      ascii;
    class       volScalarField;
    location    "4.1";
    object      p;
}
// * * * * * * * * * * * * * * * * * * * * * * * * * * * * * * * * * * * * * //

dimensions      [0 2 -2 0 0 0 0];


internalField   nonuniform List<scalar> 
17600
(
4.61519e-11
-0.000504938
-0.000255143
-0.00115398
-0.00154276
-0.00240873
-0.00222625
-0.00332519
-0.00371651
-0.0042583
-0.00478267
-0.00460518
-0.00506283
-0.0046942
-0.00461498
-0.00392293
-0.00328604
-0.00170672
0.000111357
0.00386725
4.56799e-07
-0.000505431
-0.000254965
-0.00115518
-0.00154176
-0.00241108
-0.00222423
-0.00332855
-0.00371473
-0.00426318
-0.00478127
-0.00461018
-0.0050598
-0.00470261
-0.00461164
-0.0039475
-0.00327754
-0.00177137
0.000124387
0.0035579
8.32824e-07
-0.000506297
-0.000254909
-0.00115716
-0.00154087
-0.00241481
-0.00222169
-0.00333385
-0.00371181
-0.00426969
-0.00477885
-0.00461625
-0.0050555
-0.00471383
-0.00460833
-0.0039746
-0.00326859
-0.00183977
0.000121706
0.00313788
7.42671e-07
-0.000507266
-0.000255199
-0.00115997
-0.00154093
-0.00241979
-0.00222014
-0.00333975
-0.003709
-0.00427544
-0.00477577
-0.00462129
-0.00505147
-0.00472611
-0.00460559
-0.00400298
-0.0032621
-0.00190797
8.87065e-05
0.00272602
1.96975e-07
-0.000508306
-0.000255884
-0.0011638
-0.0015417
-0.00242624
-0.00221885
-0.00334587
-0.0037059
-0.00427999
-0.00477208
-0.00462601
-0.00504736
-0.00474
-0.0046025
-0.00403416
-0.00325759
-0.00198083
2.43634e-05
0.00233573
-7.50859e-07
-0.000509419
-0.000256899
-0.00116851
-0.00154277
-0.00243388
-0.00221694
-0.00335187
-0.00370187
-0.00428337
-0.00476784
-0.00463069
-0.00504296
-0.00475552
-0.00459902
-0.00406808
-0.00325608
-0.00205872
-7.00118e-05
0.00196887
-2.04666e-06
-0.000510568
-0.000258091
-0.00117378
-0.00154394
-0.00244218
-0.00221423
-0.00335748
-0.00369685
-0.00428582
-0.00476322
-0.00463541
-0.00503839
-0.00477242
-0.00459574
-0.00410407
-0.00325975
-0.00214056
-0.000193228
0.00162102
-3.59713e-06
-0.000511705
-0.000259304
-0.00117936
-0.00154518
-0.00245073
-0.00221094
-0.00336263
-0.00369119
-0.00428763
-0.00475847
-0.00464027
-0.0050339
-0.00479052
-0.0045934
-0.00414135
-0.00327103
-0.00222493
-0.000344301
0.00128606
-5.28731e-06
-0.000512811
-0.000260447
-0.00118515
-0.00154653
-0.00245935
-0.00220744
-0.00336737
-0.00368531
-0.00428902
-0.00475385
-0.00464526
-0.00502979
-0.00480948
-0.0045928
-0.00417913
-0.00329209
-0.0023111
-0.000521626
0.000957987
-7.02262e-06
-0.000513904
-0.000261495
-0.00119112
-0.00154807
-0.002468
-0.00220396
-0.00337169
-0.00367951
-0.00429
-0.00474953
-0.00465025
-0.00502637
-0.00482884
-0.00459482
-0.00421667
-0.00332454
-0.00239927
-0.000722499
0.00063149
-8.74586e-06
-0.00051502
-0.00026246
-0.00119728
-0.00154985
-0.0024767
-0.00220065
-0.00337549
-0.00367405
-0.00429043
-0.00474577
-0.00465501
-0.00502401
-0.00484815
-0.00460043
-0.00425343
-0.00336945
-0.00249087
-0.000943051
0.000302521
-1.04261e-05
-0.000516192
-0.000263363
-0.00120365
-0.0015519
-0.00248544
-0.00219756
-0.00337867
-0.00366915
-0.00429008
-0.00474286
-0.00465918
-0.00502317
-0.004867
-0.00461042
-0.00428932
-0.00342717
-0.00258847
-0.0011787
-3.13137e-05
-1.20408e-05
-0.000517449
-0.000264216
-0.00121019
-0.00155426
-0.00249418
-0.00219475
-0.00338106
-0.00366506
-0.00428866
-0.00474115
-0.00466234
-0.00502442
-0.00488504
-0.00462541
-0.00432502
-0.00349714
-0.0026952
-0.00142521
-0.000370804
-1.35656e-05
-0.000518812
-0.000265029
-0.00121686
-0.00155697
-0.00250281
-0.00219233
-0.00338251
-0.00366205
-0.00428587
-0.00474101
-0.00466414
-0.0050282
-0.00490206
-0.0046457
-0.00436208
-0.00357787
-0.00281395
-0.0016797
-0.000715599
-1.49714e-05
-0.000520298
-0.000265805
-0.0012236
-0.00156011
-0.00251123
-0.00219041
-0.00338282
-0.00366044
-0.00428138
-0.00474287
-0.00466434
-0.00503476
-0.00491822
-0.00467107
-0.0044027
-0.00366753
-0.00294669
-0.00194091
-0.00106443
-1.62267e-05
-0.000521923
-0.000266551
-0.00123034
-0.00156377
-0.00251926
-0.0021892
-0.00338175
-0.0036606
-0.00427481
-0.00474709
-0.00466278
-0.0050442
-0.00493424
-0.00470073
-0.00444933
-0.00376492
-0.00309438
-0.00220852
-0.00141562
-1.72988e-05
-0.000523696
-0.00026728
-0.00123699
-0.00156804
-0.00252675
-0.00218892
-0.003379
-0.00366293
-0.00426583
-0.00475393
-0.00465946
-0.0050563
-0.00495142
-0.00473337
-0.0045042
-0.00387001
-0.00325671
-0.00248289
-0.00176789
-1.81575e-05
-0.000525617
-0.000268013
-0.00124347
-0.00157306
-0.00253348
-0.00218985
-0.00337425
-0.00366782
-0.00425416
-0.0047636
-0.0046547
-0.00507037
-0.0049715
-0.00476755
-0.0045688
-0.00398383
-0.00343202
-0.00276456
-0.00212084
-1.87739e-05
-0.000527678
-0.000268776
-0.00124966
-0.00157896
-0.00253926
-0.00219227
-0.00336715
-0.00367558
-0.00423965
-0.00477604
-0.0046493
-0.00508521
-0.00499644
-0.00480246
-0.00464384
-0.00410816
-0.00361797
-0.00305345
-0.00247463
-1.91245e-05
-0.000529853
-0.000269614
-0.00125541
-0.00158593
-0.00254383
-0.00219654
-0.00335737
-0.00368647
-0.00422234
-0.00479089
-0.00464437
-0.00509911
-0.00502811
-0.00483847
-0.00472927
-0.00424548
-0.00381269
-0.00334831
-0.00282981
-1.9198e-05
-0.000532081
-0.000270596
-0.00126054
-0.00159419
-0.00254695
-0.00220301
-0.00334467
-0.00370068
-0.00420258
-0.00480726
-0.00464122
-0.00511029
-0.00506784
-0.00487693
-0.00482397
-0.00439855
-0.004016
-0.00364716
-0.00318697
-1.89975e-05
-0.000534265
-0.000271814
-0.00126486
-0.00160395
-0.00254839
-0.00221196
-0.00332892
-0.00371826
-0.00418096
-0.00482386
-0.00464142
-0.00511734
-0.00511603
-0.00492019
-0.0049263
-0.00456965
-0.00423
-0.00394813
-0.00354624
-1.85432e-05
-0.000536265
-0.000273378
-0.00126815
-0.00161543
-0.00254794
-0.0022236
-0.00331015
-0.00373891
-0.00415822
-0.00483939
-0.00464657
-0.00511977
-0.00517192
-0.00497111
-0.00503485
-0.0047599
-0.00445811
-0.00425037
-0.00390713
-1.78939e-05
-0.000537878
-0.000275427
-0.00127017
-0.00162888
-0.00254542
-0.0022381
-0.00328857
-0.00376196
-0.0041355
-0.0048524
-0.00465777
-0.00511796
-0.00523386
-0.00503205
-0.00514865
-0.00496907
-0.00470491
-0.00455511
-0.00426933
-1.71276e-05
-0.000538838
-0.000278084
-0.00127073
-0.00164449
-0.00254091
-0.00225534
-0.00326475
-0.00378633
-0.00411436
-0.00486074
-0.00467548
-0.00511294
-0.00530017
-0.00510451
-0.00526626
-0.00519573
-0.00497526
-0.00486836
-0.00463437
-1.63639e-05
-0.000538828
-0.000281427
-0.00126968
-0.00166233
-0.00253466
-0.00227488
-0.00323969
-0.00381067
-0.00409586
-0.00486203
-0.0046998
-0.00510594
-0.00536928
-0.00518988
-0.00538397
-0.00542997
-0.00527064
-0.00520654
-0.0050082
-1.57927e-05
-0.00053748
-0.000285544
-0.00126689
-0.00168245
-0.00252701
-0.00229619
-0.00321426
-0.00383392
-0.00408049
-0.00485923
-0.00473023
-0.00509821
-0.00543881
-0.00528947
-0.00550245
-0.00566633
-0.00558133
-0.00555157
-0.00542027
-1.56016e-05
-0.000534419
-0.000290452
-0.00126238
-0.00170463
-0.00251871
-0.00231854
-0.00318927
-0.00385541
-0.00406836
-0.00485201
-0.00476665
-0.00509165
-0.00550647
-0.0054051
-0.00563543
-0.00590923
-0.0059079
-0.00591034
-0.00583146
-1.60157e-05
-0.000529297
-0.000296044
-0.0012563
-0.00172839
-0.0025107
-0.00234117
-0.00316539
-0.00387476
-0.00405964
-0.0048399
-0.00480953
-0.00509144
-0.0055753
-0.00554156
-0.00578307
-0.00615365
-0.00624765
-0.00628228
-0.00623606
-1.7264e-05
-0.000521805
-0.000302035
-0.00124899
-0.00175314
-0.00250362
-0.00236382
-0.00314251
-0.00389214
-0.0040555
-0.00482287
-0.00486006
-0.00510451
-0.00564559
-0.0056945
-0.00594514
-0.00639713
-0.00659438
-0.00666388
-0.00663427
-1.95621e-05
-0.000511617
-0.000307938
-0.00124112
-0.00177822
-0.00249806
-0.00238656
-0.00312045
-0.00390805
-0.00405846
-0.00480517
-0.00491811
-0.00513199
-0.00571388
-0.00585655
-0.00612182
-0.00664012
-0.00694262
-0.00705307
-0.00702582
-2.30756e-05
-0.000498541
-0.000313079
-0.00123333
-0.00180317
-0.00249429
-0.00240985
-0.0030994
-0.00392328
-0.00407152
-0.00478883
-0.00498085
-0.00517356
-0.00577936
-0.0060216
-0.00631227
-0.00688393
-0.00728891
-0.0074471
-0.00741251
-2.78528e-05
-0.000482779
-0.000316097
-0.00122595
-0.00182797
-0.00249215
-0.00243496
-0.00308047
-0.00393901
-0.00409579
-0.00477379
-0.00504361
-0.00522865
-0.00584406
-0.00618586
-0.00651457
-0.00712975
-0.00763163
-0.0078437
-0.00779754
-3.39039e-05
-0.000464843
-0.000315729
-0.00121877
-0.00185276
-0.00249155
-0.0024638
-0.00306702
-0.00395661
-0.00412984
-0.00475983
-0.00510184
-0.00529555
-0.00591099
-0.00634774
-0.00672651
-0.00737876
-0.00796989
-0.00824132
-0.00818381
-4.10716e-05
-0.000445581
-0.000311054
-0.00121085
-0.00187829
-0.00249242
-0.00249817
-0.00306328
-0.00397365
-0.0041704
-0.00474758
-0.00515286
-0.00537194
-0.00598401
-0.00650765
-0.00694633
-0.00763179
-0.00830235
-0.00863695
-0.00857193
-4.89448e-05
-0.000426107
-0.000301457
-0.0012009
-0.0019055
-0.00249588
-0.00253934
-0.00307038
-0.00398701
-0.00421459
-0.00473903
-0.0051968
-0.00545535
-0.00606593
-0.00666711
-0.00717255
-0.00788883
-0.00862652
-0.00902583
-0.00896043
-5.70257e-05
-0.000407392
-0.000287049
-0.00118764
-0.00193636
-0.00250443
-0.00258667
-0.00308663
-0.0039962
-0.00425996
-0.0047371
-0.00523563
-0.00554336
-0.00615727
-0.00682733
-0.00740375
-0.00814948
-0.00894023
-0.00940313
-0.00934674
-6.47905e-05
-0.000390399
-0.000268913
-0.00117019
-0.00197146
-0.00251916
-0.00263693
-0.00311127
-0.00400207
-0.00430474
-0.0047439
-0.00527198
-0.00563405
-0.00625722
-0.00698861
-0.00763842
-0.0084134
-0.00924335
-0.0097652
-0.00972699
-7.1477e-05
-0.000375981
-0.000249116
-0.00114782
-0.00200998
-0.00254054
-0.00268823
-0.0031437
-0.00400685
-0.00434789
-0.00476001
-0.00530853
-0.00572608
-0.00636408
-0.00715014
-0.00787485
-0.00868069
-0.00953781
-0.01011
-0.0100962
-7.61203e-05
-0.000364623
-0.000230685
-0.00112009
-0.00205001
-0.00256945
-0.00273993
-0.00318314
-0.00401326
-0.00438849
-0.00478432
-0.0053474
-0.0058186
-0.00647559
-0.0073104
-0.00811089
-0.00895159
-0.00982669
-0.0104374
-0.0104498
-7.79094e-05
-0.000356588
-0.000216261
-0.0010871
-0.00208991
-0.00260679
-0.00279155
-0.00322822
-0.00402357
-0.0044259
-0.00481464
-0.0053903
-0.00591185
-0.00659002
-0.00746793
-0.008344
-0.00922559
-0.0101129
-0.0107486
-0.0107839
-7.63593e-05
-0.000351786
-0.000207781
-0.00105013
-0.00212876
-0.00265282
-0.00284244
-0.00327695
-0.00403947
-0.00446066
-0.00484854
-0.0054379
-0.0060071
-0.00670686
-0.00762147
-0.00857095
-0.00950048
-0.0103981
-0.0110459
-0.0110966
-7.10832e-05
-0.000349252
-0.000206908
-0.00101238
-0.00216629
-0.00270716
-0.00289161
-0.00332656
-0.00406197
-0.00449464
-0.00488408
-0.00548925
-0.00610566
-0.00682705
-0.00777011
-0.00878772
-0.00977203
-0.0106826
-0.0113323
-0.0113884
-6.17426e-05
-0.000347251
-0.000214613
-0.000979086
-0.00220349
-0.00276907
-0.00293812
-0.0033731
-0.00409041
-0.00452995
-0.00491987
-0.00554182
-0.00620766
-0.0069525
-0.00791442
-0.00899063
-0.0100347
-0.0109654
-0.0116116
-0.0116625
-4.82219e-05
-0.000343451
-0.000232372
-0.000955691
-0.0022413
-0.00283697
-0.00298226
-0.00341313
-0.00412309
-0.00456865
-0.00495534
-0.00559268
-0.00631088
-0.00708432
-0.00805679
-0.00917769
-0.0102823
-0.0112425
-0.0118856
-0.0119229
-2.98784e-05
-0.000336402
-0.000263314
-0.000949672
-0.00227838
-0.00290842
-0.0030246
-0.00344536
-0.00415784
-0.00461272
-0.00499176
-0.00563951
-0.0064118
-0.00722185
-0.0082003
-0.0093498
-0.0105096
-0.0115077
-0.0121536
-0.0121731
-7.0075e-06
-0.000328086
-0.000309762
-0.000954133
-0.00230986
-0.00298412
-0.00307024
-0.00347038
-0.00419193
-0.00466309
-0.00503154
-0.0056813
-0.00650605
-0.00736172
-0.00834661
-0.00950994
-0.010714
-0.0117543
-0.0124119
-0.0124151
1.30615e-05
-0.000321161
-0.000359748
-0.000963719
-0.00233691
-0.00306626
-0.00312571
-0.00348996
-0.00422197
-0.00471874
-0.00507692
-0.00571872
-0.00658979
-0.00749917
-0.00849655
-0.00966242
-0.0108959
-0.0119771
-0.0126554
-0.0126485
2.94374e-05
-0.000319031
-0.000406853
-0.000980937
-0.00236256
-0.00315288
-0.00319351
-0.00350661
-0.00424457
-0.00477716
-0.00512963
-0.00575296
-0.0066596
-0.00762866
-0.00864871
-0.00981074
-0.0110578
-0.0121726
-0.0128773
-0.0128695
4.89873e-05
-0.000315066
-0.000479213
-0.00100841
-0.00237523
-0.00323859
-0.00327485
-0.00352434
-0.00425705
-0.00483475
-0.00518994
-0.005785
-0.00671218
-0.00774286
-0.00879805
-0.00995597
-0.0112023
-0.0123395
-0.0130718
-0.013072
6.50665e-05
-0.000315616
-0.000555094
-0.00104811
-0.00238251
-0.00332066
-0.00336927
-0.00354693
-0.00425834
-0.00488659
-0.00525697
-0.00581804
-0.00674833
-0.00783604
-0.00893788
-0.0100982
-0.0113342
-0.0124799
-0.0132356
-0.0132502
7.05435e-05
-0.000317914
-0.000630211
-0.00110121
-0.00238872
-0.00339615
-0.00347496
-0.00357914
-0.00425
-0.00492762
-0.00532823
-0.0058555
-0.00677052
-0.00790317
-0.00905852
-0.0102338
-0.0114564
-0.0125979
-0.0133684
-0.0133995
6.66627e-05
-0.000324617
-0.000704792
-0.00116728
-0.00239647
-0.00346295
-0.00358948
-0.00362432
-0.00423404
-0.00495183
-0.00539787
-0.00589921
-0.00678175
-0.00794087
-0.00915109
-0.0103547
-0.011569
-0.0126978
-0.0134724
-0.0135176
5.60014e-05
-0.000336932
-0.000784461
-0.00124771
-0.00240852
-0.00351914
-0.00370923
-0.00368474
-0.00421393
-0.00495506
-0.00545884
-0.00594928
-0.00678686
-0.00794879
-0.00920737
-0.0104493
-0.0116667
-0.0127811
-0.0135499
-0.0136036
3.72541e-05
-0.000340292
-0.000880079
-0.00134308
-0.00242793
-0.00356386
-0.00382938
-0.00376136
-0.00419447
-0.00493586
-0.00550212
-0.00599983
-0.00678884
-0.00792946
-0.0092216
-0.0105068
-0.0117397
-0.0128442
-0.0136026
-0.0136588
4.23662e-06
-0.000368022
-0.000961471
-0.00145486
-0.00245921
-0.00359787
-0.00394343
-0.00385188
-0.00418014
-0.00489541
-0.00551923
-0.00604085
-0.0067873
-0.00788854
-0.00919385
-0.0105196
-0.0117772
-0.0128795
-0.0136296
-0.0136844
-4.30276e-05
-0.000403875
-0.00104937
-0.00158001
-0.00250584
-0.0036241
-0.00404723
-0.00395414
-0.00417758
-0.00483882
-0.00550493
-0.00606231
-0.006778
-0.00782956
-0.00912568
-0.0104806
-0.0117667
-0.0128777
-0.0136244
-0.0136779
-0.000106094
-0.000449298
-0.00114263
-0.00171546
-0.00257069
-0.00364763
-0.00413888
-0.00406348
-0.00418965
-0.00477154
-0.00545558
-0.00605302
-0.00675192
-0.00775048
-0.00901762
-0.0103854
-0.0116993
-0.0128276
-0.0135784
-0.0136355
-0.000188231
-0.000519191
-0.00123015
-0.00186018
-0.00265499
-0.00367253
-0.00421625
-0.00417303
-0.00421475
-0.0046984
-0.00537206
-0.00600335
-0.00669753
-0.00764555
-0.00886871
-0.0102315
-0.0115672
-0.0127185
-0.0134826
-0.0135492
-0.000285164
-0.000596641
-0.00133923
-0.00201369
-0.00275987
-0.00370427
-0.00428002
-0.0042778
-0.00425105
-0.00462436
-0.00525777
-0.00590756
-0.00660261
-0.00750514
-0.00867439
-0.0100146
-0.0113617
-0.0125382
-0.0133257
-0.0134122
-0.000402695
-0.000700696
-0.00145259
-0.00217469
-0.00288621
-0.00374784
-0.00433246
-0.00437317
-0.00429438
-0.00455182
-0.00511577
-0.00576195
-0.00645474
-0.00731569
-0.00842498
-0.00972663
-0.0110722
-0.0122723
-0.0130928
-0.0132137
-0.000547324
-0.000826878
-0.00157679
-0.00234247
-0.00303248
-0.00380817
-0.00437838
-0.00445674
-0.00434044
-0.00448129
-0.00494972
-0.00556344
-0.00624159
-0.00706101
-0.00810553
-0.00935441
-0.0106835
-0.0119014
-0.0127593
-0.0129237
-0.00071818
-0.000982183
-0.00171316
-0.00251686
-0.0031963
-0.00389116
-0.00442655
-0.00452966
-0.00438691
-0.00441384
-0.00476325
-0.00531065
-0.00595196
-0.00672235
-0.00769505
-0.00887659
-0.0101708
-0.0113945
-0.0122887
-0.0125094
-0.000913383
-0.00115935
-0.00187779
-0.0027014
-0.0033752
-0.00400066
-0.00448501
-0.00459562
-0.00443419
-0.00435404
-0.00456336
-0.00500639
-0.00557786
-0.00627815
-0.00716332
-0.00825943
-0.00949897
-0.0107133
-0.0116442
-0.0119387
-0.00113582
-0.00136443
-0.00206582
-0.002896
-0.00356751
-0.00413737
-0.00455961
-0.00465921
-0.0044861
-0.00431407
-0.00436639
-0.00466055
-0.00511434
-0.0057056
-0.00647353
-0.00745394
-0.00861273
-0.00980536
-0.0107804
-0.0111754
-0.0014124
-0.00160203
-0.00226331
-0.0030757
-0.00376876
-0.00430091
-0.00465458
-0.00472551
-0.00454235
-0.00430365
-0.00419426
-0.00428831
-0.00455378
-0.00496685
-0.00556708
-0.00638553
-0.00742431
-0.00857854
-0.00961417
-0.0101594
-0.00174779
-0.00197932
-0.00247015
-0.00323323
-0.0039801
-0.00448191
-0.00476547
-0.00479958
-0.00460367
-0.0043239
-0.00408867
-0.00393833
-0.00391404
-0.00402583
-0.00432609
-0.00489
-0.00572925
-0.0068054
-0.00793725
-0.00874159
-0.00205103
-0.00222323
-0.0028124
-0.00357018
-0.00423818
-0.0046702
-0.00488543
-0.00488639
-0.00467202
-0.00437097
-0.00409049
-0.00378363
-0.00337451
-0.00291726
-0.00259948
-0.00260385
-0.00301627
-0.00378779
-0.00478675
-0.00578425
-0.00241355
-0.00258835
-0.00318141
-0.00390967
-0.00450546
-0.00485686
-0.00500526
-0.00499008
-0.00477137
-0.00439474
-0.00408402
-0.0039417
-0.003475
-0.00245667
-0.00142859
-0.000786085
-0.000512667
-0.000367952
-0.000172132
3.00062e-05
-0.00288495
-0.0030437
-0.0035694
-0.00423809
-0.00475199
-0.00502474
-0.00510748
-0.00507385
-0.00493553
-0.00439426
-0.00328631
-0.00215518
-0.00124407
-0.000544547
5.67881e-05
0.000685813
0.00140038
0.0021516
0.00278016
0.00294641
-0.00342246
-0.00354835
-0.00401104
-0.00456929
-0.00496514
-0.00513593
-0.00516578
-0.0048138
-0.00397996
-0.00303291
-0.00216956
-0.00145885
-0.000859595
-0.000210034
0.000601531
0.0015754
0.00262786
0.00360807
0.00428952
0.00433667
-0.00407354
-0.00412464
-0.00445527
-0.00485936
-0.00512399
-0.00492263
-0.00441427
-0.00382631
-0.00324573
-0.00267119
-0.00207163
-0.00138924
-0.000588223
0.000352317
0.00142119
0.00258299
0.00375517
0.00479217
0.0054552
0.00540212
-0.00489787
-0.00498055
-0.00484284
-0.00468406
-0.00451644
-0.0042471
-0.00389279
-0.00352223
-0.00309579
-0.00255296
-0.00186068
-0.00101284
-3.18303e-05
0.00105098
0.00222227
0.00344864
0.00464909
0.00567011
0.00628109
0.00614962
-0.00561525
-0.00557403
-0.00512482
-0.00458944
-0.00417092
-0.00387611
-0.00360587
-0.00328581
-0.00285172
-0.0022573
-0.00148616
-0.000557488
0.000495913
0.00164707
0.00286898
0.00411632
0.00530574
0.00629413
0.00685717
0.00666499
-0.00616629
-0.00600958
-0.0054154
-0.0046734
-0.00405217
-0.00362605
-0.00330346
-0.00295484
-0.00249644
-0.00188236
-0.00109673
-0.000148076
0.000936619
0.00212382
0.00337467
0.00463482
0.00581691
0.00677934
0.00730172
0.00705837
-0.0066293
-0.00639292
-0.00569029
-0.0047939
-0.00399435
-0.00341464
-0.00299628
-0.00260841
-0.00214357
-0.00153421
-0.000751563
0.000200945
0.00130072
0.00251029
0.00378147
0.00505104
0.00622694
0.00716725
0.00765462
0.00736796
-0.00702403
-0.00673102
-0.00591738
-0.0048974
-0.0039575
-0.00324591
-0.0027377
-0.00230856
-0.00183436
-0.00122877
-0.000451816
0.000501726
0.00160985
0.00283182
0.00411404
0.0053875
0.0065562
0.00747742
0.00793595
0.00761449
-0.00733887
-0.00699316
-0.00610934
-0.00499173
-0.00394213
-0.00312643
-0.00254
-0.00206732
-0.00157536
-0.000967897
-0.000195067
0.000754308
0.00186205
0.00308793
0.00437397
0.00564736
0.00680903
0.00771535
0.00815243
0.00780557
-0.00757373
-0.00719747
-0.00625971
-0.00507585
-0.00395218
-0.00306229
-0.0024125
-0.00189426
-0.00137373
-0.000748465
3.43829e-05
0.000986977
0.00209202
0.00331183
0.00459328
0.0058611
0.00701416
0.00790809
0.00832938
0.00796437
-0.00771987
-0.00733419
-0.00637268
-0.00515575
-0.00399386
-0.00306368
-0.00237581
-0.00182366
-0.00127636
-0.000630736
0.000170799
0.00114173
0.00226261
0.0034923
0.00477397
0.00603563
0.00717942
0.00806377
0.00847689
0.00810536
0.0078587
0.0028656
-0.00455391
-0.00973033
-0.0107875
-0.00956115
-0.00809677
-0.00706991
-0.00646928
-0.00614711
-0.00598855
-0.00592995
-0.00593666
-0.00598618
-0.00606569
-0.00616782
-0.00628213
-0.00639598
-0.00650368
-0.00660855
-0.00671513
-0.00682355
-0.00693172
-0.00703911
-0.00714657
-0.00725417
-0.0073609
-0.00746598
-0.00756977
-0.0076731
-0.0077762
-0.00787821
-0.00797821
-0.00807627
-0.00817338
-0.0082703
-0.00836696
-0.0084626
-0.0085566
-0.00864892
-0.00873988
-0.00882955
-0.00891767
-0.00900384
-0.00908793
-0.00917014
-0.00925062
-0.0093295
-0.00940679
-0.00948263
-0.00955706
-0.00963031
-0.00970261
-0.00977427
-0.0098452
-0.00991526
-0.00998417
-0.0100522
-0.0101197
-0.0101868
-0.0102534
-0.0103192
-0.0103842
-0.010449
-0.0105137
-0.0105783
-0.0106426
-0.0107067
-0.010771
-0.0108355
-0.0109
-0.0109644
-0.0110288
-0.0110933
-0.011158
-0.0112228
-0.0112877
-0.0113523
-0.011417
-0.0114816
-0.0115465
-0.0116114
-0.0116762
-0.0117409
-0.0118057
-0.0118706
-0.0119354
-0.0120003
-0.0120651
-0.01213
-0.0121948
-0.0122596
-0.0123242
-0.0123889
-0.0124535
-0.0125182
-0.0125828
-0.0126475
-0.0127123
-0.0127773
-0.0128424
-0.0129078
-0.0129734
-0.0130392
-0.0131053
-0.0131714
-0.0132379
-0.0133044
-0.0133714
-0.0134381
-0.0135053
-0.0135723
-0.0136397
-0.013707
-0.0137747
-0.0138424
-0.0139101
-0.0139781
-0.0140461
-0.0141145
-0.0141828
-0.0142515
-0.0143199
-0.0143889
-0.0144577
-0.0145271
-0.0145963
-0.0146659
-0.0147356
-0.0148055
-0.014876
-0.0149463
-0.0150171
-0.0150877
-0.015159
-0.01523
-0.0153017
-0.0153732
-0.015445
-0.0155168
-0.0155888
-0.0156613
-0.0157336
-0.0158066
-0.015879
-0.0159526
-0.0160257
-0.0160997
-0.0161731
-0.016247
-0.0163213
-0.0163954
-0.0164703
-0.0165443
-0.0166197
-0.0166943
-0.0167705
-0.0168456
-0.0169213
-0.0169974
-0.0170735
-0.0171507
-0.0172264
-0.0173044
-0.0173809
-0.0174593
-0.0175366
-0.0176147
-0.0176935
-0.0177713
-0.0178511
-0.0179284
-0.0180088
-0.0180873
-0.0181675
-0.0182475
-0.0183268
-0.018409
-0.0184877
-0.0185706
-0.0186501
-0.0187328
-0.0188145
-0.0188954
-0.0189793
-0.0190591
-0.0191439
-0.0192243
-0.0193068
-0.0193902
-0.0194694
-0.019555
-0.0196316
-0.0197159
-0.0197911
-0.0198687
-0.0199406
-0.0200058
-0.0200613
-0.0201166
0.0071311
0.00268918
-0.0044743
-0.00959614
-0.0107086
-0.00952345
-0.00807311
-0.0070534
-0.00645751
-0.00613823
-0.00598139
-0.00592389
-0.00593137
-0.00598144
-0.00606136
-0.00616384
-0.00627847
-0.00639261
-0.00650055
-0.00660565
-0.00671244
-0.00682106
-0.0069294
-0.00703695
-0.00714455
-0.00725229
-0.00735915
-0.00746434
-0.00756823
-0.00767166
-0.00777484
-0.00787693
-0.007977
-0.00807512
-0.00817229
-0.00826927
-0.00836597
-0.00846166
-0.00855569
-0.00864806
-0.00873905
-0.00882875
-0.00891691
-0.00900311
-0.00908723
-0.00916947
-0.00924997
-0.00932887
-0.00940619
-0.00948205
-0.0095565
-0.00962977
-0.00970209
-0.00977376
-0.00984471
-0.00991478
-0.00998371
-0.0100518
-0.0101193
-0.0101864
-0.010253
-0.0103188
-0.0103839
-0.0104486
-0.0105134
-0.010578
-0.0106423
-0.0107064
-0.0107707
-0.0108352
-0.0108997
-0.0109641
-0.0110285
-0.011093
-0.0111577
-0.0112225
-0.0112874
-0.0113521
-0.0114167
-0.0114814
-0.0115463
-0.0116112
-0.011676
-0.0117407
-0.0118055
-0.0118704
-0.0119352
-0.0120001
-0.0120649
-0.0121299
-0.0121947
-0.0122594
-0.012324
-0.0123887
-0.0124533
-0.0125181
-0.0125826
-0.0126473
-0.0127121
-0.0127771
-0.0128423
-0.0129077
-0.0129733
-0.0130391
-0.0131051
-0.0131712
-0.0132377
-0.0133043
-0.0133712
-0.013438
-0.0135051
-0.0135721
-0.0136395
-0.0137069
-0.0137746
-0.0138423
-0.01391
-0.013978
-0.014046
-0.0141144
-0.0141827
-0.0142514
-0.0143198
-0.0143888
-0.0144576
-0.014527
-0.0145962
-0.0146658
-0.0147355
-0.0148055
-0.0148759
-0.0149462
-0.0150171
-0.0150876
-0.015159
-0.0152299
-0.0153017
-0.0153731
-0.015445
-0.0155167
-0.0155887
-0.0156613
-0.0157336
-0.0158066
-0.015879
-0.0159526
-0.0160257
-0.0160996
-0.0161731
-0.016247
-0.0163212
-0.0163953
-0.0164703
-0.0165442
-0.0166197
-0.0166942
-0.0167704
-0.0168455
-0.0169212
-0.0169974
-0.0170734
-0.0171506
-0.0172263
-0.0173043
-0.0173809
-0.0174593
-0.0175366
-0.0176147
-0.0176935
-0.0177712
-0.017851
-0.0179284
-0.0180088
-0.0180873
-0.0181675
-0.0182475
-0.0183268
-0.0184089
-0.0184877
-0.0185706
-0.0186501
-0.0187328
-0.0188145
-0.0188954
-0.0189793
-0.0190591
-0.0191438
-0.0192242
-0.0193068
-0.0193901
-0.0194694
-0.019555
-0.0196316
-0.0197159
-0.0197911
-0.0198687
-0.0199406
-0.0200058
-0.0200612
-0.0201165
0.00636518
0.00251235
-0.00430021
-0.00934298
-0.0105662
-0.00946667
-0.00804153
-0.00702915
-0.00643885
-0.00612428
-0.00597082
-0.00591565
-0.00592473
-0.00597592
-0.0060566
-0.0061596
-0.00627461
-0.00638906
-0.00649728
-0.00660262
-0.00670964
-0.00681846
-0.00692699
-0.0070347
-0.00714246
-0.00725034
-0.00735734
-0.00746266
-0.00756666
-0.00767019
-0.00777346
-0.00787563
-0.00797579
-0.00807397
-0.0081712
-0.00826824
-0.00836499
-0.00846072
-0.0085548
-0.00864721
-0.00873823
-0.00882798
-0.00891616
-0.00900239
-0.00908654
-0.00916881
-0.00924934
-0.00932826
-0.0094056
-0.00948148
-0.00955595
-0.00962924
-0.00970158
-0.00977327
-0.00984424
-0.00991432
-0.00998327
-0.0100514
-0.0101189
-0.010186
-0.0102526
-0.0103184
-0.0103835
-0.0104483
-0.010513
-0.0105776
-0.0106419
-0.0107061
-0.0107704
-0.0108349
-0.0108994
-0.0109639
-0.0110283
-0.0110927
-0.0111575
-0.0112223
-0.0112872
-0.0113518
-0.0114165
-0.0114812
-0.0115461
-0.0116109
-0.0116758
-0.0117405
-0.0118053
-0.0118702
-0.011935
-0.0119999
-0.0120648
-0.0121297
-0.0121945
-0.0122593
-0.0123238
-0.0123885
-0.0124532
-0.0125179
-0.0125825
-0.0126472
-0.012712
-0.012777
-0.0128422
-0.0129075
-0.0129731
-0.0130389
-0.013105
-0.0131711
-0.0132376
-0.0133042
-0.0133711
-0.0134379
-0.013505
-0.013572
-0.0136394
-0.0137068
-0.0137745
-0.0138422
-0.0139099
-0.0139779
-0.014046
-0.0141144
-0.0141826
-0.0142513
-0.0143197
-0.0143887
-0.0144575
-0.0145269
-0.0145961
-0.0146657
-0.0147354
-0.0148054
-0.0148758
-0.0149461
-0.015017
-0.0150875
-0.0151589
-0.0152299
-0.0153016
-0.0153731
-0.0154449
-0.0155167
-0.0155887
-0.0156612
-0.0157335
-0.0158065
-0.0158789
-0.0159525
-0.0160256
-0.0160995
-0.016173
-0.0162469
-0.0163212
-0.0163953
-0.0164702
-0.0165442
-0.0166196
-0.0166942
-0.0167704
-0.0168455
-0.0169212
-0.0169973
-0.0170734
-0.0171506
-0.0172263
-0.0173043
-0.0173808
-0.0174593
-0.0175366
-0.0176146
-0.0176935
-0.0177712
-0.017851
-0.0179283
-0.0180087
-0.0180873
-0.0181674
-0.0182475
-0.0183268
-0.0184089
-0.0184877
-0.0185706
-0.0186501
-0.0187328
-0.0188145
-0.0188953
-0.0189792
-0.019059
-0.0191438
-0.0192242
-0.0193068
-0.0193901
-0.0194694
-0.019555
-0.0196316
-0.0197159
-0.0197911
-0.0198687
-0.0199406
-0.0200057
-0.0200612
-0.0201165
0.00563729
0.00235631
-0.00405778
-0.00900742
-0.0103673
-0.0093854
-0.00799567
-0.00699173
-0.00640895
-0.00610202
-0.00595452
-0.00590348
-0.00591544
-0.00596864
-0.00605069
-0.00615455
-0.00627008
-0.0063849
-0.00649345
-0.0065991
-0.0067064
-0.00681546
-0.00692419
-0.00703209
-0.00714002
-0.00724807
-0.00735523
-0.00746071
-0.00756486
-0.00766852
-0.00777191
-0.00787418
-0.00797443
-0.00807271
-0.00817002
-0.00826712
-0.00836394
-0.00845973
-0.00855386
-0.00864631
-0.00873738
-0.00882716
-0.00891538
-0.00900164
-0.00908583
-0.00916813
-0.00924868
-0.00932763
-0.009405
-0.0094809
-0.00955539
-0.0096287
-0.00970106
-0.00977277
-0.00984375
-0.00991385
-0.00998282
-0.0100509
-0.0101184
-0.0101856
-0.0102522
-0.010318
-0.0103831
-0.0104479
-0.0105127
-0.0105773
-0.0106416
-0.0107058
-0.0107701
-0.0108346
-0.0108991
-0.0109636
-0.011028
-0.0110924
-0.0111572
-0.011222
-0.0112869
-0.0113516
-0.0114163
-0.0114809
-0.0115458
-0.0116107
-0.0116756
-0.0117403
-0.0118051
-0.01187
-0.0119349
-0.0119997
-0.0120646
-0.0121295
-0.0121943
-0.0122591
-0.0123237
-0.0123884
-0.012453
-0.0125178
-0.0125823
-0.0126471
-0.0127118
-0.0127769
-0.012842
-0.0129074
-0.012973
-0.0130388
-0.0131049
-0.013171
-0.0132375
-0.0133041
-0.013371
-0.0134378
-0.0135049
-0.0135719
-0.0136393
-0.0137067
-0.0137744
-0.0138421
-0.0139098
-0.0139779
-0.0140459
-0.0141143
-0.0141825
-0.0142512
-0.0143196
-0.0143886
-0.0144574
-0.0145268
-0.0145961
-0.0146656
-0.0147354
-0.0148053
-0.0148757
-0.014946
-0.0150169
-0.0150875
-0.0151588
-0.0152298
-0.0153015
-0.015373
-0.0154448
-0.0155166
-0.0155886
-0.0156612
-0.0157335
-0.0158065
-0.0158789
-0.0159525
-0.0160255
-0.0160995
-0.016173
-0.0162469
-0.0163211
-0.0163952
-0.0164702
-0.0165441
-0.0166196
-0.0166942
-0.0167703
-0.0168454
-0.0169212
-0.0169973
-0.0170734
-0.0171506
-0.0172262
-0.0173042
-0.0173808
-0.0174592
-0.0175365
-0.0176146
-0.0176934
-0.0177711
-0.017851
-0.0179283
-0.0180087
-0.0180872
-0.0181674
-0.0182474
-0.0183267
-0.0184089
-0.0184876
-0.0185705
-0.01865
-0.0187328
-0.0188144
-0.0188953
-0.0189792
-0.019059
-0.0191438
-0.0192242
-0.0193067
-0.0193901
-0.0194693
-0.019555
-0.0196316
-0.0197158
-0.0197911
-0.0198686
-0.0199406
-0.0200057
-0.0200612
-0.0201165
0.0049383
0.00218994
-0.00379657
-0.00864128
-0.0101427
-0.00929217
-0.00794197
-0.00694428
-0.00636846
-0.00607079
-0.00593127
-0.00588607
-0.00590222
-0.0059585
-0.00604273
-0.00614794
-0.00626424
-0.00637955
-0.00648853
-0.0065946
-0.00670227
-0.00681163
-0.00692061
-0.00702873
-0.00713686
-0.00724509
-0.00735245
-0.00745815
-0.00756252
-0.00766637
-0.00776992
-0.00787232
-0.0079727
-0.00807111
-0.00816855
-0.00826576
-0.00836267
-0.00845852
-0.00855272
-0.00864523
-0.00873635
-0.00882619
-0.00891446
-0.00900076
-0.00908499
-0.00916733
-0.00924792
-0.0093269
-0.00940429
-0.00948022
-0.00955475
-0.00962809
-0.00970047
-0.0097722
-0.0098432
-0.00991332
-0.00998231
-0.0100504
-0.010118
-0.0101852
-0.0102518
-0.0103176
-0.0103827
-0.0104475
-0.0105123
-0.0105769
-0.0106412
-0.0107054
-0.0107697
-0.0108342
-0.0108988
-0.0109633
-0.0110277
-0.0110922
-0.0111569
-0.0112218
-0.0112867
-0.0113513
-0.011416
-0.0114807
-0.0115456
-0.0116105
-0.0116754
-0.0117401
-0.0118049
-0.0118698
-0.0119347
-0.0119995
-0.0120644
-0.0121293
-0.0121941
-0.0122589
-0.0123235
-0.0123882
-0.0124528
-0.0125176
-0.0125822
-0.0126469
-0.0127117
-0.0127767
-0.0128419
-0.0129072
-0.0129729
-0.0130387