/*--------------------------------*- C++ -*----------------------------------*\
| =========                 |                                                 |
| \\      /  F ield         | OpenFOAM: The Open Source CFD Toolbox           |
|  \\    /   O peration     | Version:  v2012                                 |
|   \\  /    A nd           | Website:  www.openfoam.com                      |
|    \\/     M anipulation  |                                                 |
\*---------------------------------------------------------------------------*/
FoamFile
{
    version     2.0;
    format      ascii;
    class       volVectorField;
    location    "4.1";
    object      U;
}
// * * * * * * * * * * * * * * * * * * * * * * * * * * * * * * * * * * * * * //

dimensions      [0 1 -1 0 0 0 0];


internalField   nonuniform List<vector> 
17600
(
(0.828276 0.000767275 0)
(1.16527 -0.00153844 0)
(0.846743 0.00074697 0)
(1.1418 -0.003507 0)
(0.864049 0.00409015 0)
(1.13166 -0.00484797 0)
(0.870745 0.00775175 0)
(1.12767 -0.00357752 0)
(0.868232 0.00565045 0)
(1.12022 -0.000515747 0)
(0.865754 0.00225543 0)
(1.10976 0.00113902 0)
(0.862782 0.00099704 0)
(1.10228 0.000774542 0)
(0.858302 0.00159408 0)
(1.09675 0.000363757 0)
(0.850473 0.00205008 0)
(1.09319 0.000294338 0)
(0.836556 0.00318906 0)
(1.08957 0.000586195 0)
(0.839099 0.00072328 0)
(1.15245 -0.00148489 0)
(0.858468 0.000727161 0)
(1.1286 -0.0034394 0)
(0.875262 0.00398221 0)
(1.11655 -0.00467833 0)
(0.88217 0.00756321 0)
(1.10879 -0.0032973 0)
(0.883276 0.00549229 0)
(1.09662 -0.000237647 0)
(0.888434 0.00214922 0)
(1.08056 0.00146038 0)
(0.896067 0.000917249 0)
(1.06445 0.00105949 0)
(0.905632 0.00156292 0)
(1.04437 0.000669418 0)
(0.918698 0.00234508 0)
(1.01683 0.000301158 0)
(0.936811 0.00461097 0)
(0.975155 -0.00011734 0)
(0.86004 0.000696095 0)
(1.12884 -0.00144363 0)
(0.880997 0.000727348 0)
(1.10484 -0.00339371 0)
(0.897489 0.00389551 0)
(1.09108 -0.00453674 0)
(0.905103 0.0074039 0)
(1.07985 -0.00308594 0)
(0.911649 0.005406 0)
(1.06233 -0.000114251 0)
(0.924933 0.00220963 0)
(1.04158 0.00146871 0)
(0.939128 0.00107537 0)
(1.0223 0.000979565 0)
(0.95178 0.00188777 0)
(1.00272 0.000465694 0)
(0.962667 0.0028349 0)
(0.983235 8.36994e-05 0)
(0.968592 0.00510869 0)
(0.965714 0.000816428 0)
(0.887993 0.000708992 0)
(1.09853 -0.0014523 0)
(0.909989 0.000764365 0)
(1.07561 -0.00339137 0)
(0.925526 0.00387694 0)
(1.06215 -0.00446401 0)
(0.933145 0.00735448 0)
(1.05094 -0.00301902 0)
(0.943217 0.00547629 0)
(1.03291 -0.00017987 0)
(0.95865 0.00241088 0)
(1.01427 0.00130606 0)
(0.970185 0.00134686 0)
(1.00044 0.00079681 0)
(0.976101 0.00221331 0)
(0.989983 0.000287851 0)
(0.978189 0.0031804 0)
(0.981455 7.19995e-05 0)
(0.975399 0.00535795 0)
(0.973763 0.00187869 0)
(0.918228 0.000756075 0)
(1.06732 -0.00150777 0)
(0.939248 0.00083047 0)
(1.04748 -0.00341728 0)
(0.952253 0.00389598 0)
(1.03674 -0.00442861 0)
(0.958398 0.00734769 0)
(1.02915 -0.00302695 0)
(0.968644 0.00559811 0)
(1.01563 -0.000296186 0)
(0.981101 0.0026113 0)
(1.0032 0.00118316 0)
(0.987013 0.0015504 0)
(0.995766 0.000727232 0)
(0.987205 0.00240067 0)
(0.990966 0.000265394 0)
(0.985359 0.00337192 0)
(0.985908 0.000207608 0)
(0.981085 0.00555672 0)
(0.979327 0.00288367 0)
(0.945884 0.000823036 0)
(1.04079 -0.00158699 0)
(0.96355 0.00090461 0)
(1.02569 -0.00344818 0)
(0.972629 0.00391725 0)
(1.01889 -0.00439988 0)
(0.976291 0.00731906 0)
(1.016 -0.00304903 0)
(0.984773 0.00567013 0)
(1.00839 -0.000380873 0)
(0.993262 0.00273491 0)
(1.00145 0.00112751 0)
(0.995506 0.00167455 0)
(0.99752 0.000729931 0)
(0.993519 0.00251489 0)
(0.994573 0.000298857 0)
(0.990814 0.00350292 0)
(0.990245 0.000404504 0)
(0.986523 0.00570414 0)
(0.984156 0.0038073 0)
(0.967612 0.000891401 0)
(1.02205 -0.00166437 0)
(0.980543 0.0009654 0)
(1.01206 -0.00346396 0)
(0.985456 0.00392328 0)
(1.00863 -0.00436128 0)
(0.986635 0.00725027 0)
(1.00919 -0.0030632 0)
(0.993219 0.00566862 0)
(1.00607 -0.000426821 0)
(0.999078 0.00278386 0)
(1.00241 0.00110714 0)
(0.999972 0.00175169 0)
(1.00001 0.000752264 0)
(0.997658 0.00259791 0)
(0.997709 0.00035826 0)
(0.994898 0.00358678 0)
(0.993819 0.000676885 0)
(0.990725 0.00576658 0)
(0.988357 0.00469914 0)
(0.982394 0.000945112 0)
(1.01101 -0.00172363 0)
(0.990703 0.00100255 0)
(1.00517 -0.0034565 0)
(0.992387 0.00391284 0)
(1.00374 -0.00430795 0)
(0.991741 0.00715173 0)
(1.00586 -0.00306559 0)
(0.997002 0.00561316 0)
(1.00528 -0.000449612 0)
(1.00165 0.00278725 0)
(1.00337 0.0010994 0)
(1.00238 0.00180192 0)
(1.00183 0.000782535 0)
(1.00033 0.00265547 0)
(1 0.000444185 0)
(0.99776 0.00362329 0)
(0.996554 0.00102158 0)
(0.993853 0.00575601 0)
(0.991679 0.00555094 0)
(0.991184 0.000977051 0)
(1.00553 -0.00176104 0)
(0.995993 0.00101784 0)
(1.00232 -0.00343005 0)
(0.995875 0.00389191 0)
(1.00178 -0.00424106 0)
(0.994188 0.00703886 0)
(1.0042 -0.00305428 0)
(0.998596 0.00552482 0)
(1.00482 -0.000457069 0)
(1.00277 0.00276272 0)
(1.00389 0.00109648 0)
(1.00371 0.00183103 0)
(1.00303 0.000819656 0)
(1.00209 0.0026829 0)
(1.00166 0.000558554 0)
(0.999815 0.0036127 0)
(0.998632 0.0014196 0)
(0.996276 0.00569924 0)
(0.994309 0.006334 0)
(0.995841 0.000989369 0)
(1.00313 -0.00178107 0)
(0.998466 0.0010189 0)
(1.00123 -0.00339388 0)
(0.997772 0.00386518 0)
(1.0011 -0.00416394 0)
(0.995682 0.00692017 0)
(1.00341 -0.00302713 0)
(0.999452 0.00541467 0)
(1.00453 -0.000449399 0)
(1.00337 0.00271348 0)
(1.00417 0.00110104 0)
(1.00455 0.00183428 0)
(1.00386 0.000864601 0)
(1.00332 0.00267624 0)
(1.00291 0.000702648 0)
(1.00138 0.00355574 0)
(1.00027 0.00185012 0)
(0.998231 0.00562511 0)
(0.996465 0.00701884 0)
(0.998132 0.000988687 0)
(1.00208 -0.00179022 0)
(0.999561 0.00101318 0)
(1.00068 -0.00335562 0)
(0.999009 0.00383309 0)
(1.0009 -0.00408054 0)
(0.996952 0.0067963 0)
(1.00311 -0.00298291 0)
(1.00018 0.0052871 0)
(1.00442 -0.000424721 0)
(1.00383 0.00263904 0)
(1.0044 0.00111887 0)
(1.00514 0.0018075 0)
(1.00449 0.000923131 0)
(1.00424 0.00263249 0)
(1.00387 0.000874503 0)
(1.00258 0.00345984 0)
(1.00157 0.00229321 0)
(0.999812 0.00556511 0)
(0.998238 0.00758279 0)
(0.999248 0.000981269 0)
(1.00151 -0.00179334 0)
(1.00005 0.00100539 0)
(1.00023 -0.00331921 0)
(0.999902 0.00379368 0)
(1.00085 -0.00399412 0)
(0.998121 0.00666372 0)
(1.00309 -0.00292113 0)
(1.00091 0.00514296 0)
(1.00448 -0.000381203 0)
(1.00425 0.00254209 0)
(1.00462 0.00115154 0)
(1.00559 0.00174735 0)
(1.00497 0.00100034 0)
(1.0049 0.00255148 0)
(1.00458 0.00106973 0)
(1.00348 0.00334335 0)
(1.00255 0.00272577 0)
(1.00104 0.00554799 0)
(0.999643 0.00801908 0)
(0.999821 0.000970968 0)
(1.00116 -0.00179317 0)
(1.00028 0.000997544 0)
(0.999854 -0.00328535 0)
(1.00053 0.00374517 0)
(1.00085 -0.00390629 0)
(0.999096 0.00651868 0)
(1.0032 -0.00284171 0)
(1.00156 0.00498077 0)
(1.00462 -0.000315436 0)
(1.00461 0.00242194 0)
(1.00481 0.00120332 0)
(1.0059 0.00165678 0)
(1.00532 0.00109694 0)
(1.00534 0.00243854 0)
(1.00507 0.00128053 0)
(1.00409 0.00323063 0)
(1.00325 0.00312229 0)
(1.00195 0.00559024 0)
(1.00071 0.00834026 0)
(1.00013 0.000959459 0)
(1.00092 -0.00179108 0)
(1.00038 0.000990012 0)
(0.999577 -0.00325285 0)
(1.00092 0.00368692 0)
(1.00088 -0.00381687 0)
(0.999809 0.006359 0)
(1.00335 -0.00274499 0)
(1.00206 0.00479925 0)
(1.00476 -0.000225987 0)
(1.00489 0.00227759 0)
(1.00496 0.001278 0)
(1.0061 0.00154214 0)
(1.00554 0.00121029 0)
(1.00561 0.00230591 0)
(1.00538 0.00149296 0)
(1.0045 0.00314541 0)
(1.00372 0.00346249 0)
(1.0026 0.0056915 0)
(1.00148 0.00856998 0)
(1.00031 0.000947233 0)
(1.00078 -0.00178776 0)
(1.00043 0.000982539 0)
(0.999409 -0.00322004 0)
(1.00115 0.00361901 0)
(1.00092 -0.0037242 0)
(1.00027 0.00618329 0)
(1.00347 -0.00263096 0)
(1.00242 0.0045973 0)
(1.00486 -0.000112824 0)
(1.00508 0.00210924 0)
(1.00504 0.00137496 0)
(1.00621 0.00140567 0)
(1.00567 0.00133563 0)
(1.00576 0.00216972 0)
(1.00555 0.00169179 0)
(1.00476 0.00310513 0)
(1.00403 0.00374445 0)
(1.00308 0.00584015 0)
(1.00207 0.00873543 0)
(1.00041 0.000934355 0)
(1.0007 -0.00178352 0)
(1.00044 0.000974549 0)
(0.999327 -0.00318509 0)
(1.00127 0.00354141 0)
(1.00097 -0.00362601 0)
(1.00055 0.00599027 0)
(1.00355 -0.00249857 0)
(1.00266 0.00437195 0)
(1.0049 2.64583e-05 0)
(1.00522 0.00191451 0)
(1.00508 0.0014929 0)
(1.00628 0.00125127 0)
(1.00575 0.00146607 0)
(1.00585 0.0020466 0)
(1.00566 0.00186229 0)
(1.00493 0.00311709 0)
(1.00426 0.00398184 0)
(1.00345 0.00601776 0)
(1.00252 0.00886334 0)
(1.00047 0.000920782 0)
(1.00066 -0.00177835 0)
(1.00045 0.000965074 0)
(0.999298 -0.00314627 0)
(1.00133 0.00345398 0)
(1.00103 -0.00352009 0)
(1.00072 0.0057792 0)
(1.00359 -0.00234768 0)
(1.00282 0.00412263 0)
(1.0049 0.000188907 0)
(1.00532 0.0016975 0)
(1.00509 0.00162603 0)
(1.00631 0.00108705 0)
(1.00579 0.00158822 0)
(1.00589 0.00195295 0)
(1.00573 0.00199074 0)
(1.00507 0.00317792 0)
(1.00444 0.00418784 0)
(1.00377 0.00619886 0)
(1.00292 0.00897066 0)
(1.0005 0.000906396 0)
(1.00062 -0.00177195 0)
(1.00045 0.000953284 0)
(0.9993 -0.00310287 0)
(1.00137 0.0033565 0)
(1.00108 -0.00340433 0)
(1.00082 0.00554963 0)
(1.0036 -0.00217764 0)
(1.00294 0.00384882 0)
(1.00486 0.000370426 0)
(1.0054 0.00145995 0)
(1.00507 0.00176733 0)
(1.00633 0.000928178 0)
(1.00582 0.00168716 0)
(1.00593 0.00190254 0)
(1.00579 0.0020747 0)
(1.0052 0.00327812 0)
(1.00461 0.0043762 0)
(1.00407 0.00636288 0)
(1.00328 0.00906249 0)
(1.00053 0.000891179 0)
(1.00059 -0.0017642 0)
(1.00046 0.00093873 0)
(0.999318 -0.00305399 0)
(1.0014 0.00324706 0)
(1.00113 -0.00327696 0)
(1.00089 0.00530031 0)
(1.00358 -0.00198676 0)
(1.00305 0.00354961 0)
(1.00481 0.000569997 0)
(1.00547 0.00120655 0)
(1.00505 0.00190664 0)
(1.00635 0.000788115 0)
(1.00585 0.00174669 0)
(1.00595 0.00190144 0)
(1.00584 0.00212524 0)
(1.00533 0.00340567 0)
(1.00478 0.00456618 0)
(1.00436 0.00650467 0)
(1.00362 0.00913876 0)
(1.00056 0.000874953 0)
(1.00057 -0.00175424 0)
(1.00047 0.000919762 0)
(0.999344 -0.00299772 0)
(1.00142 0.00312361 0)
(1.00117 -0.00313586 0)
(1.00095 0.0050293 0)
(1.00354 -0.00177503 0)
(1.00314 0.00322879 0)
(1.00473 0.000782412 0)
(1.00553 0.000949411 0)
(1.00502 0.00203063 0)
(1.00635 0.000676646 0)
(1.00588 0.00175376 0)
(1.00597 0.00194517 0)
(1.00591 0.00215659 0)
(1.00547 0.00353991 0)
(1.00494 0.00477267 0)
(1.00465 0.00663093 0)
(1.00396 0.00919861 0)
(1.00057 0.000857466 0)
(1.00055 -0.00174095 0)
(1.00048 0.00089438 0)
(0.999377 -0.00293237 0)
(1.00145 0.0029852 0)
(1.00122 -0.00297927 0)
(1.00101 0.00473607 0)
(1.0035 -0.00154345 0)
(1.00323 0.00288778 0)
(1.00466 0.00100524 0)
(1.00559 0.000699619 0)
(1.00499 0.00212554 0)
(1.00635 0.000605243 0)
(1.00592 0.00170827 0)
(1.006 0.00202248 0)
(1.00598 0.00218587 0)
(1.00563 0.00365893 0)
(1.00512 0.00500052 0)
(1.00494 0.00675911 0)
(1.0043 0.00924605 0)
(1.00058 0.000838689 0)
(1.00053 -0.00172345 0)
(1.00048 0.000861077 0)
(0.999416 -0.00285685 0)
(1.00147 0.00283092 0)
(1.00127 -0.00280857 0)
(1.00106 0.00442378 0)
(1.00346 -0.00129851 0)
(1.00332 0.00253551 0)
(1.00458 0.00122511 0)
(1.00564 0.000466812 0)
(1.00498 0.00218101 0)
(1.00634 0.000582491 0)
(1.00597 0.0016185 0)
(1.00602 0.00211374 0)
(1.00605 0.0022294 0)
(1.0058 0.00375113 0)
(1.00531 0.00524245 0)
(1.00523 0.00690733 0)
(1.00464 0.00928903 0)
(1.00059 0.000818559 0)
(1.00052 -0.00170069 0)
(1.00048 0.000818951 0)
(0.999461 -0.00277077 0)
(1.00149 0.00266012 0)
(1.00132 -0.0026242 0)
(1.00112 0.00409345 0)
(1.00342 -0.00104467 0)
(1.00341 0.00218087 0)
(1.00451 0.00142619 0)
(1.00569 0.000258065 0)
(1.00497 0.00218869 0)
(1.00632 0.000603154 0)
(1.00603 0.00150012 0)
(1.00605 0.00219284 0)
(1.00613 0.00229322 0)
(1.00598 0.00380685 0)
(1.00551 0.00547897 0)
(1.00552 0.00707893 0)
(1.00499 0.00933761 0)
(1.00058 0.000795684 0)
(1.00053 -0.00166936 0)
(1.00047 0.00076284 0)
(0.999514 -0.00266961 0)
(1.00151 0.00246755 0)
(1.00138 -0.00242117 0)
(1.00117 0.00374139 0)
(1.00337 -0.00077862 0)
(1.0035 0.00182277 0)
(1.00444 0.00160612 0)
(1.00572 8.83481e-05 0)
(1.00497 0.00214217 0)
(1.00628 0.000656515 0)
(1.0061 0.00136929 0)
(1.00609 0.00224749 0)
(1.00622 0.00237102 0)
(1.00619 0.00381934 0)
(1.00573 0.00568348 0)
(1.0058 0.00726623 0)
(1.00534 0.00941346 0)
(1.00056 0.000771857 0)
(1.00054 -0.00163164 0)
(1.00045 0.000695041 0)
(0.999576 -0.00256019 0)
(1.00152 0.00226106 0)
(1.00144 -0.00221341 0)
(1.00121 0.00339138 0)
(1.00334 -0.000530196 0)
(1.00358 0.00149843 0)
(1.00438 0.00173012 0)
(1.00574 -1.36835e-05 0)
(1.005 0.00202022 0)
(1.00624 0.00075672 0)
(1.00618 0.00121041 0)
(1.00614 0.00230102 0)
(1.00631 0.00243349 0)
(1.0064 0.00379186 0)
(1.00598 0.0057591 0)
(1.00608 0.0074313 0)
(1.00569 0.00951058 0)
(1.00052 0.000745557 0)
(1.00057 -0.00158203 0)
(1.00041 0.000612742 0)
(0.999647 -0.0024389 0)
(1.00152 0.00203893 0)
(1.00151 -0.00200072 0)
(1.00125 0.00304048 0)
(1.0033 -0.000298273 0)
(1.00365 0.00120535 0)
(1.00434 0.00180737 0)
(1.00574 -7.74842e-05 0)
(1.00503 0.00186026 0)
(1.00618 0.000865872 0)
(1.00626 0.00105455 0)
(1.0062 0.00232035 0)
(1.0064 0.00250802 0)
(1.00662 0.00371871 0)
(1.00627 0.00571996 0)
(1.00638 0.00746736 0)
(1.00606 0.00945249 0)
(1.00047 0.000716502 0)
(1.0006 -0.00152056 0)
(1.00037 0.000515564 0)
(0.999724 -0.002304 0)
(1.00152 0.00180201 0)
(1.00158 -0.00178131 0)
(1.00129 0.00269058 0)
(1.00327 -8.01832e-05 0)
(1.00371 0.000937337 0)
(1.0043 0.0018516 0)
(1.00573 -0.000118288 0)
(1.00508 0.00170468 0)
(1.00611 0.000963415 0)
(1.00634 0.000938292 0)
(1.00627 0.00227928 0)
(1.00649 0.00262283 0)
(1.00684 0.00371274 0)
(1.00657 0.00572544 0)
(1.00669 0.00753255 0)
(1.00645 0.0094495 0)
(1.00042 0.000686943 0)
(1.00064 -0.00145031 0)
(1.00032 0.000408548 0)
(0.999804 -0.00216642 0)
(1.00151 0.00156474 0)
(1.00166 -0.00158027 0)
(1.00132 0.00237719 0)
(1.00324 9.17051e-05 0)
(1.00377 0.000722356 0)
(1.00427 0.00184529 0)
(1.0057 -0.000117708 0)
(1.00514 0.00152089 0)
(1.00604 0.00108614 0)
(1.00642 0.000870775 0)
(1.00635 0.00225979 0)
(1.00659 0.00280459 0)
(1.00705 0.00383196 0)
(1.00689 0.00577715 0)
(1.00701 0.00766447 0)
(1.00684 0.00948743 0)
(1.00036 0.00065362 0)
(1.00067 -0.00136718 0)
(1.00027 0.000290952 0)
(0.999883 -0.00202201 0)
(1.0015 0.00132449 0)
(1.00173 -0.00139403 0)
(1.00135 0.00208078 0)
(1.00322 0.000238544 0)
(1.00382 0.00053367 0)
(1.00424 0.00181875 0)
(1.00565 -9.04313e-05 0)
(1.00521 0.00131866 0)
(1.00598 0.00122988 0)
(1.00649 0.00090806 0)
(1.00646 0.00229495 0)
(1.00671 0.00306497 0)
(1.00726 0.00400276 0)
(1.00722 0.00586563 0)
(1.00734 0.0077856 0)
(1.00723 0.00954785 0)
(1.0003 0.00061963 0)
(1.00071 -0.00127821 0)
(1.00023 0.000168886 0)
(0.999957 -0.00188923 0)
(1.0015 0.00109872 0)
(1.0018 -0.00123631 0)
(1.00139 0.00181106 0)
(1.00319 0.00035835 0)
(1.00386 0.000365037 0)
(1.00422 0.00177645 0)
(1.0056 -1.15629e-05 0)
(1.00528 0.00116278 0)
(1.00593 0.00139919 0)
(1.00656 0.00104705 0)
(1.00659 0.00234424 0)
(1.00684 0.00331339 0)
(1.00746 0.00418958 0)
(1.00756 0.0059437 0)
(1.00768 0.0078517 0)
(1.0076 0.00957227 0)
(1.00025 0.000584337 0)
(1.00073 -0.00118044 0)
(1.00018 3.97069e-05 0)
(1.00003 -0.00177248 0)
(1.0015 0.000888754 0)
(1.00187 -0.00111333 0)
(1.00142 0.00157187 0)
(1.00315 0.000451969 0)
(1.0039 0.000224208 0)
(1.00421 0.00172221 0)
(1.00554 0.000137629 0)
(1.00536 0.00107518 0)
(1.00589 0.00158832 0)
(1.00662 0.00124402 0)
(1.00673 0.00239206 0)
(1.00699 0.00349974 0)
(1.00766 0.00436576 0)
(1.0079 0.00598542 0)
(1.00803 0.00785348 0)
(1.00797 0.00953519 0)
(1.0002 0.000549625 0)
(1.00074 -0.00108394 0)
(1.00014 -8.19662e-05 0)
(1.00008 -0.00167494 0)
(1.0015 0.000697087 0)
(1.00192 -0.00101161 0)
(1.00146 0.00134321 0)
(1.00311 0.000539932 0)
(1.00394 0.000109227 0)
(1.00421 0.0016787 0)
(1.00548 0.000332641 0)
(1.00544 0.00103031 0)
(1.00587 0.0017476 0)
(1.00666 0.00146657 0)
(1.00687 0.00243634 0)
(1.00715 0.00363062 0)
(1.00786 0.00451264 0)
(1.00824 0.00599967 0)
(1.00839 0.00779986 0)
(1.00832 0.00944347 0)
(1.00016 0.000515871 0)
(1.00075 -0.000989926 0)
(1.0001 -0.000182054 0)
(1.00014 -0.00161822 0)
(1.00151 0.000525584 0)
(1.00197 -0.000939077 0)
(1.00151 0.00113177 0)
(1.00306 0.000634242 0)
(1.00397 5.38206e-05 0)
(1.00422 0.00165103 0)
(1.00542 0.000557339 0)
(1.00552 0.00101229 0)
(1.00588 0.00185093 0)
(1.0067 0.00167888 0)
(1.00701 0.00247692 0)
(1.00732 0.00370913 0)
(1.00805 0.00461913 0)
(1.00856 0.00598703 0)
(1.00875 0.00770234 0)
(1.00868 0.00930861 0)
(1.00013 0.000484272 0)
(1.00074 -0.000901387 0)
(1.00007 -0.000256255 0)
(1.00018 -0.00158469 0)
(1.00152 0.000355592 0)
(1.00201 -0.000885315 0)
(1.00157 0.000922572 0)
(1.00301 0.000739762 0)
(1.00401 9.27979e-05 0)
(1.00424 0.00163724 0)
(1.00535 0.000800452 0)
(1.00558 0.00102573 0)
(1.0059 0.00190978 0)
(1.00672 0.00187275 0)
(1.00715 0.00253371 0)
(1.0075 0.00376117 0)
(1.00825 0.00470767 0)
(1.00887 0.00597105 0)
(1.00912 0.00758945 0)
(1.00903 0.00915216 0)
(1.0001 0.000454554 0)
(1.00072 -0.000828064 0)
(1.00003 -0.00029483 0)
(1.00021 -0.00157478 0)
(1.00154 0.000188158 0)
(1.00205 -0.000828362 0)
(1.00163 0.000722121 0)
(1.00297 0.000859731 0)
(1.00404 0.000189352 0)
(1.00426 0.0016157 0)
(1.00529 0.0010262 0)
(1.00563 0.00106803 0)
(1.00593 0.00193601 0)
(1.00675 0.00204217 0)
(1.00728 0.00261192 0)
(1.00768 0.00380532 0)
(1.00845 0.00479179 0)
(1.00917 0.00596157 0)
(1.00949 0.00746594 0)
(1.00939 0.0089692 0)
(1.00008 0.000430184 0)
(1.0007 -0.000775825 0)
(1 -0.000301388 0)
(1.00023 -0.00157838 0)
(1.00156 1.98198e-05 0)
(1.00207 -0.000762796 0)
(1.0017 0.000581197 0)
(1.00294 0.000987041 0)
(1.00406 0.000312487 0)
(1.00429 0.00157139 0)
(1.00522 0.00121023 0)
(1.00567 0.0011342 0)
(1.00598 0.00194888 0)
(1.00678 0.00218384 0)
(1.00741 0.00270142 0)
(1.00788 0.00384138 0)
(1.00866 0.0048635 0)
(1.00946 0.00594844 0)
(1.00985 0.00732135 0)
(1.00975 0.00874653 0)
(1.00006 0.000409083 0)
(1.00068 -0.000740472 0)
(0.999964 -0.000285266 0)
(1.00025 -0.00156149 0)
(1.00159 -0.000140635 0)
(1.0021 -0.00066828 0)
(1.00178 0.000494232 0)
(1.00292 0.00108469 0)
(1.00407 0.000449424 0)
(1.00432 0.00151098 0)
(1.00516 0.00135446 0)
(1.00569 0.001221 0)
(1.00603 0.00196448 0)
(1.00682 0.00230297 0)
(1.00754 0.00279092 0)
(1.00807 0.00386685 0)
(1.00887 0.0049126 0)
(1.00973 0.0059282 0)
(1.01019 0.00716282 0)
(1.0101 0.00849383 0)
(1.00004 0.000390986 0)
(1.00066 -0.00072411 0)
(0.999927 -0.000245403 0)
(1.00025 -0.00151868 0)
(1.00163 -0.000282578 0)
(1.00213 -0.000550538 0)
(1.00185 0.000432011 0)
(1.0029 0.00113864 0)
(1.00408 0.000584207 0)
(1.00435 0.00145089 0)
(1.00511 0.00146438 0)
(1.0057 0.00132537 0)
(1.00608 0.00199191 0)
(1.00686 0.00241199 0)
(1.00766 0.00287927 0)
(1.00828 0.00388583 0)
(1.00909 0.00493812 0)
(1.00998 0.0059055 0)
(1.01052 0.00700881 0)
(1.01045 0.00823201 0)
(1.00002 0.000379419 0)
(1.00064 -0.000732951 0)
(0.999892 -0.000195854 0)
(1.00025 -0.001428 0)
(1.00167 -0.000413675 0)
(1.00217 -0.000440446 0)
(1.00193 0.000395484 0)
(1.00289 0.00116189 0)
(1.00407 0.000717505 0)
(1.00438 0.00141562 0)
(1.00507 0.00155076 0)
(1.00571 0.00144335 0)
(1.00614 0.00203333 0)
(1.00692 0.00251257 0)
(1.00778 0.00296062 0)
(1.00848 0.00389195 0)
(1.00931 0.0049336 0)
(1.01023 0.00587261 0)
(1.01082 0.00686321 0)
(1.01078 0.00797029 0)
(1 0.000371647 0)
(1.00062 -0.000764609 0)
(0.999863 -0.00014563 0)
(1.00024 -0.00129327 0)
(1.00171 -0.000528573 0)
(1.00221 -0.000341602 0)
(1.00201 0.000391217 0)
(1.0029 0.00116697 0)
(1.00406 0.000847084 0)
(1.00441 0.00141183 0)
(1.00504 0.00161824 0)
(1.00571 0.00156021 0)
(1.00621 0.00208372 0)
(1.00697 0.00259902 0)
(1.00789 0.00302978 0)
(1.00868 0.00387962 0)
(1.00954 0.00489521 0)
(1.01047 0.00581913 0)
(1.01111 0.00672091 0)
(1.0111 0.00771165 0)
(0.999985 0.000366348 0)
(1.00061 -0.000806312 0)
(0.999844 -0.000102837 0)
(1.00022 -0.00112755 0)
(1.00175 -0.000617383 0)
(1.00226 -0.000245018 0)
(1.00208 0.00042235 0)
(1.00291 0.00116484 0)
(1.00406 0.000966606 0)
(1.00444 0.00143299 0)
(1.00502 0.00167169 0)
(1.00572 0.00166293 0)
(1.00627 0.00213853 0)
(1.00704 0.00267455 0)
(1.008 0.00309356 0)
(1.00888 0.00385856 0)
(1.00977 0.00483154 0)
(1.01071 0.00574408 0)
(1.01138 0.00657875 0)
(1.0114 0.00746 0)
(0.999969 0.000360753 0)
(1.0006 -0.000848197 0)
(0.999837 -7.69941e-05 0)
(1.0002 -0.000940585 0)
(1.0018 -0.000662348 0)
(1.00232 -0.000146326 0)
(1.00216 0.000483284 0)
(1.00293 0.00115861 0)
(1.00405 0.00106812 0)
(1.00446 0.00147231 0)
(1.00501 0.00172358 0)
(1.00573 0.00175119 0)
(1.00634 0.0021923 0)
(1.00711 0.00274387 0)
(1.00811 0.00315693 0)
(1.00907 0.00383503 0)
(1.01001 0.00474468 0)
(1.01095 0.00563976 0)
(1.01163 0.00642505 0)
(1.01168 0.00721011 0)
(0.999953 0.00035663 0)
(1.0006 -0.000891354 0)
(0.999845 -9.19382e-05 0)
(1.00018 -0.000746583 0)
(1.00185 -0.00064815 0)
(1.00239 -3.91465e-05 0)
(1.00223 0.000576981 0)
(1.00295 0.00115567 0)
(1.00406 0.001144 0)
(1.00449 0.00151695 0)
(1.005 0.00177858 0)
(1.00574 0.00182614 0)
(1.00641 0.00223514 0)
(1.00719 0.00280423 0)
(1.00821 0.00322152 0)
(1.00925 0.00381417 0)
(1.01025 0.00463944 0)
(1.0112 0.00550351 0)
(1.01188 0.00625367 0)
(1.01193 0.00696127 0)
(0.999938 0.000353589 0)
(1.00059 -0.000929496 0)
(0.99987 -0.000149086 0)
(1.00017 -0.000556983 0)
(1.00189 -0.000580133 0)
(1.00247 8.2879e-05 0)
(1.0023 0.000715026 0)
(1.00297 0.00118036 0)
(1.00407 0.00120563 0)
(1.00452 0.00156518 0)
(1.005 0.00183771 0)
(1.00576 0.00189006 0)
(1.00649 0.00225603 0)
(1.00728 0.00283786 0)
(1.00831 0.00327359 0)
(1.00942 0.00379078 0)
(1.01048 0.00451568 0)
(1.01145 0.0053295 0)
(1.01212 0.00605132 0)
(1.01217 0.0067016 0)
(0.999925 0.000343665 0)
(1.00059 -0.000957512 0)
(0.999912 -0.000253079 0)
(1.00017 -0.000345053 0)
(1.00195 -0.000453686 0)
(1.00257 0.000213745 0)
(1.00237 0.000873161 0)
(1.003 0.00123868 0)
(1.00408 0.00126519 0)
(1.00455 0.00162461 0)
(1.005 0.00191698 0)
(1.00577 0.00196962 0)
(1.00657 0.0022786 0)
(1.00738 0.00285577 0)
(1.00841 0.00331952 0)
(1.00957 0.00378042 0)
(1.0107 0.00439807 0)
(1.01169 0.00513816 0)
(1.01236 0.005825 0)
(1.0124 0.00643154 0)
(0.999914 0.000349438 0)
(1.00059 -0.0010033 0)
(0.999975 -0.000339918 0)
(1.00019 -9.99443e-05 0)
(1.002 -0.000289971 0)
(1.00268 0.000328886 0)
(1.00245 0.00102592 0)
(1.00302 0.00131927 0)
(1.00411 0.00131491 0)
(1.0046 0.00167239 0)
(1.00502 0.00199698 0)
(1.00578 0.00205742 0)
(1.00665 0.00230121 0)
(1.00749 0.00285207 0)
(1.00852 0.00334384 0)
(1.00971 0.00377474 0)
(1.0109 0.00429427 0)
(1.01193 0.00494434 0)
(1.0126 0.005583 0)
(1.01263 0.00615353 0)
(0.999905 0.000361567 0)
(1.00059 -0.000978511 0)
(1.00006 -0.000330567 0)
(1.00022 0.000108346 0)
(1.00205 -0.000168913 0)
(1.0028 0.00036781 0)
(1.00254 0.00114299 0)
(1.00304 0.00141525 0)
(1.00413 0.00136435 0)
(1.00466 0.00170746 0)
(1.00504 0.00207003 0)
(1.00579 0.00215019 0)
(1.00672 0.00232503 0)
(1.00762 0.00282122 0)
(1.00863 0.00332582 0)
(1.00984 0.00374536 0)
(1.01108 0.00418279 0)
(1.01216 0.00473399 0)
(1.01284 0.00530704 0)
(1.01285 0.00583961 0)
(0.999898 0.000307664 0)
(1.00059 -0.000782491 0)
(1.00016 -0.000371655 0)
(1.00026 0.000213676 0)
(1.00208 -6.5902e-05 0)
(1.00292 0.000372119 0)
(1.00264 0.00123216 0)
(1.00306 0.00152079 0)
(1.00415 0.00141051 0)
(1.00472 0.00171042 0)
(1.00507 0.00210882 0)
(1.0058 0.00222306 0)
(1.00678 0.00233855 0)
(1.00774 0.00276012 0)
(1.00876 0.00326314 0)
(1.00995 0.00368662 0)
(1.01123 0.00406656 0)
(1.01235 0.00452399 0)
(1.01306 0.00501947 0)
(1.01306 0.00550628 0)
(0.999895 0.000325419 0)
(1.00058 -0.00074439 0)
(1.00024 -0.000333966 0)
(1.00032 0.000416418 0)
(1.00211 0.000107368 0)
(1.00304 0.000406908 0)
(1.00274 0.0013234 0)
(1.00306 0.00166942 0)
(1.00414 0.00150985 0)
(1.00478 0.00174271 0)
(1.00511 0.00216996 0)
(1.00579 0.00232608 0)
(1.00681 0.00238978 0)
(1.00784 0.0027168 0)
(1.00888 0.00319156 0)
(1.01007 0.00361728 0)
(1.01135 0.00395705 0)
(1.01252 0.00432969 0)
(1.01325 0.00473892 0)
(1.01325 0.0051668 0)
(0.999891 0.00035377 0)
(1.00058 -0.0007291 0)
(1.00037 -0.000289786 0)
(1.00037 0.000631912 0)
(1.00212 0.000315802 0)
(1.00316 0.000468335 0)
(1.00287 0.00140574 0)
(1.00308 0.0018405 0)
(1.00414 0.00164775 0)
(1.00484 0.0017887 0)
(1.00517 0.00222343 0)
(1.0058 0.00242411 0)
(1.00683 0.00245054 0)
(1.00794 0.00267554 0)
(1.00901 0.00309238 0)
(1.01018 0.00351173 0)
(1.01147 0.00382638 0)
(1.01265 0.00413106 0)
(1.01342 0.00445557 0)
(1.01343 0.00481576 0)
(0.999892 0.000309384 0)
(1.00057 -0.000512663 0)
(1.00049 -0.00030702 0)
(1.00046 0.000741253 0)
(1.00213 0.000518119 0)
(1.00327 0.000532891 0)
(1.00302 0.00143992 0)
(1.00311 0.00197159 0)
(1.00411 0.0017755 0)
(1.00489 0.00181262 0)
(1.00523 0.00222739 0)
(1.0058 0.00248342 0)
(1.00683 0.00249788 0)
(1.00801 0.00263448 0)
(1.00913 0.00296785 0)
(1.0103 0.00336643 0)
(1.01157 0.00366702 0)
(1.01276 0.00392403 0)
(1.01356 0.00417386 0)
(1.01359 0.00446301 0)
(0.999895 0.000301131 0)
(1.00055 -0.000311317 0)
(1.00061 -0.000249413 0)
(1.00055 0.000848172 0)
(1.00212 0.000735422 0)
(1.00336 0.000623586 0)
(1.00317 0.00146041 0)
(1.00314 0.00209587 0)
(1.00407 0.00193507 0)
(1.00492 0.00187234 0)
(1.00529 0.0022253 0)
(1.00581 0.00253182 0)
(1.00681 0.00255007 0)
(1.00803 0.00260666 0)
(1.00922 0.00283278 0)
(1.01041 0.00318037 0)
(1.01165 0.00346194 0)
(1.01284 0.00368487 0)
(1.01365 0.00387283 0)
(1.0137 0.00409248 0)
(0.999901 0.000292813 0)
(1.00053 -0.000152113 0)
(1.00071 -0.000185382 0)
(1.00065 0.000935368 0)
(1.00212 0.000973545 0)
(1.00343 0.000767965 0)
(1.00332 0.0015032 0)
(1.00318 0.00222213 0)
(1.00401 0.00211846 0)
(1.00491 0.00196086 0)
(1.00535 0.00221278 0)
(1.00582 0.00254873 0)
(1.00677 0.00259659 0)
(1.00802 0.00258967 0)
(1.00928 0.00270791 0)
(1.01049 0.00297897 0)
(1.01172 0.00323013 0)
(1.01289 0.00342891 0)
(1.01371 0.0035715 0)
(1.01378 0.00373016 0)
(0.999908 0.000301698 0)
(1.0005 -5.1464e-05 0)
(1.0008 -5.99887e-05 0)
(1.00076 0.00103884 0)
(1.0021 0.00122528 0)
(1.00348 0.0009442 0)
(1.00347 0.0015547 0)
(1.00325 0.00233273 0)
(1.00395 0.00232301 0)
(1.00488 0.00209412 0)
(1.0054 0.00223223 0)
(1.00585 0.00255994 0)
(1.00673 0.00265235 0)
(1.00798 0.00260114 0)
(1.00929 0.00261445 0)
(1.01055 0.00278362 0)
(1.01178 0.00297968 0)
(1.01292 0.00314622 0)
(1.01373 0.00325006 0)
(1.01381 0.00335449 0)
(0.999915 0.000291296 0)
(1.00048 0.000119353 0)
(1.0009 4.98757e-05 0)
(1.00089 0.0011305 0)
(1.0021 0.00148654 0)
(1.0035 0.00117723 0)
(1.00362 0.00164438 0)
(1.00333 0.00243724 0)
(1.00388 0.00253333 0)
(1.00482 0.00225493 0)
(1.00542 0.00227044 0)
(1.00587 0.00253721 0)
(1.00668 0.00265921 0)
(1.0079 0.00258716 0)
(1.00925 0.00251265 0)
(1.01056 0.00257153 0)
(1.0118 0.00269564 0)
(1.01294 0.00281652 0)
(1.01373 0.00288633 0)
(1.01381 0.00294728 0)
(0.999927 0.000267754 0)
(1.00045 0.000318306 0)
(1.00097 0.00017721 0)
(1.00102 0.00123067 0)
(1.00209 0.001737 0)
(1.0035 0.0014468 0)
(1.00374 0.00175193 0)
(1.00342 0.00251848 0)
(1.00382 0.00271826 0)
(1.00472 0.00243737 0)
(1.0054 0.00233239 0)
(1.00588 0.0025121 0)
(1.00663 0.00263081 0)
(1.00779 0.00256218 0)
(1.00916 0.00242166 0)
(1.01052 0.0023778 0)
(1.01179 0.00241151 0)
(1.01291 0.00247145 0)
(1.0137 0.00249981 0)
(1.01378 0.00252024 0)
(0.999937 0.000298731 0)
(1.00042 0.000450869 0)
(1.00104 0.000338613 0)
(1.00116 0.00129945 0)
(1.0021 0.00192645 0)
(1.00347 0.00170277 0)
(1.00384 0.00187018 0)
(1.00352 0.00258552 0)
(1.00376 0.0028809 0)
(1.00459 0.00264667 0)
(1.00533 0.00243233 0)
(1.00586 0.00250677 0)
(1.00657 0.00258605 0)
(1.00766 0.00251875 0)
(1.00902 0.0023255 0)
(1.01041 0.00218776 0)
(1.01172 0.00211659 0)
(1.01285 0.0021019 0)
(1.01362 0.00207555 0)
(1.0137 0.0020529 0)
(0.99995 0.000275456 0)
(1.00038 0.000640329 0)
(1.00108 0.000544404 0)
(1.00129 0.00141149 0)
(1.00212 0.00214828 0)
(1.00342 0.00201618 0)
(1.0039 0.00207531 0)
(1.00362 0.00269796 0)
(1.00372 0.00305796 0)
(1.00444 0.00287991 0)
(1.00522 0.00258903 0)
(1.0058 0.0025344 0)
(1.00648 0.00254754 0)
(1.00751 0.00245801 0)
(1.00883 0.00222454 0)
(1.01024 0.00199965 0)
(1.01157 0.00182662 0)
(1.01272 0.00172466 0)
(1.01349 0.00163543 0)
(1.01357 0.00156336 0)
(0.99996 0.000289365 0)
(1.00035 0.000767533 0)
(1.0011 0.00077078 0)
(1.00141 0.00154555 0)
(1.00214 0.00235483 0)
(1.00335 0.00233111 0)
(1.00392 0.00231454 0)
(1.0037 0.00282161 0)
(1.00368 0.00321974 0)
(1.00427 0.00310334 0)
(1.00504 0.00277314 0)
(1.00568 0.00259636 0)
(1.00635 0.00251723 0)
(1.00732 0.00238295 0)
(1.00858 0.00210886 0)
(1.00999 0.00180493 0)
(1.01135 0.00153309 0)
(1.01252 0.00133434 0)
(1.01331 0.00117255 0)
(1.01339 0.00104417 0)
(0.999971 0.000337374 0)
(1.00032 0.00085725 0)
(1.00111 0.000995487 0)
(1.00152 0.00167872 0)
(1.00218 0.00253591 0)
(1.00328 0.00264195 0)
(1.00391 0.00258439 0)
(1.00376 0.00298067 0)
(1.00365 0.00337966 0)
(1.0041 0.0033307 0)
(1.00483 0.0029823 0)
(1.0055 0.00269882 0)
(1.00618 0.00251125 0)
(1.00708 0.00230498 0)
(1.00829 0.00197835 0)
(1.00966 0.00159693 0)
(1.01104 0.00122512 0)
(1.01224 0.000923144 0)
(1.01305 0.000675087 0)
(1.01315 0.000482801 0)
(0.99998 0.000334799 0)
(1.0003 0.00103233 0)
(1.00111 0.00125098 0)
(1.00162 0.00186935 0)
(1.00222 0.0027453 0)
(1.0032 0.00297677 0)
(1.00386 0.00291391 0)
(1.00378 0.0031969 0)
(1.00361 0.00356999 0)
(1.00391 0.00356994 0)
(1.00456 0.00322506 0)
(1.00524 0.00284891 0)
(1.00593 0.00254437 0)
(1.00679 0.00224 0)
(1.00792 0.00184131 0)
(1.00925 0.00137437 0)
(1.01063 0.000898219 0)
(1.01185 0.000483744 0)
(1.01269 0.000134184 0)
(1.01283 -0.000138145 0)
(0.999988 0.000365526 0)
(1.00027 0.00118701 0)
(1.00108 0.00151053 0)
(1.00168 0.00207497 0)
(1.00226 0.00293784 0)
(1.00312 0.0032868 0)
(1.00377 0.00326307 0)
(1.00377 0.00346022 0)
(1.00356 0.003788 0)
(1.00371 0.00383206 0)
(1.00425 0.00349723 0)
(1.00491 0.00305637 0)
(1.00559 0.00262328 0)
(1.0064 0.00220565 0)
(1.00746 0.00170605 0)
(1.00874 0.00114035 0)
(1.0101 0.00054718 0)
(1.01134 3.71325e-06 0)
(1.01222 -0.000467765 0)
(1.0124 -0.000848551 0)
(0.999993 0.000408945 0)
(1.00025 0.0012949 0)
(1.00104 0.00175777 0)
(1.00172 0.00230859 0)
(1.00229 0.00313814 0)
(1.00303 0.00358342 0)
(1.00365 0.00363867 0)
(1.0037 0.00377408 0)