/*--------------------------------*- C++ -*----------------------------------*\
| =========                 |                                                 |
| \\      /  F ield         | OpenFOAM: The Open Source CFD Toolbox           |
|  \\    /   O peration     | Version:  v2012                                 |
|   \\  /    A nd           | Website:  www.openfoam.com                      |
|    \\/     M anipulation  |                                                 |
\*---------------------------------------------------------------------------*/
FoamFile
{
    version     2.0;
    format      ascii;
    class       surfaceScalarField;
    location    "4.4";
    object      phi;
}
// * * * * * * * * * * * * * * * * * * * * * * * * * * * * * * * * * * * * * //

dimensions      [0 3 -1 0 0 0 0];
oriented        oriented;


internalField   nonuniform List<scalar> 
34900
(
1.17119e-06
3.26898e-07
1.15729e-06
-5.38029e-07
1.16979e-06
5.66428e-07
1.14729e-06
-4.22766e-07
1.16104e-06
2.03256e-07
1.14674e-06
-3.34928e-08
1.15458e-06
-8.85094e-08
1.14706e-06
1.01436e-08
1.15668e-06
-7.24508e-09
1.14949e-06
-2.85422e-09
1.15922e-06
5.6956e-08
1.15093e-06
2.58486e-08
1.16006e-06
7.99836e-08
1.1499e-06
3.06365e-08
1.15834e-06
8.44066e-08
1.14619e-06
3.02832e-08
1.15365e-06
8.43175e-08
1.13999e-06
2.65394e-08
1.1422e-06
9.29379e-08
3.19536e-08
1.10566e-06
1.2239e-06
3.27256e-07
1.21041e-06
-5.2454e-07
1.21961e-06
5.57233e-07
1.19908e-06
-4.02236e-07
1.21015e-06
1.92184e-07
1.20092e-06
-2.42569e-08
1.2065e-06
-9.40969e-08
1.20315e-06
1.3493e-08
1.20971e-06
-1.38021e-08
1.20717e-06
-3.10701e-10
1.2118e-06
5.23249e-08
1.21071e-06
2.6941e-08
1.21163e-06
7.90634e-08
1.21222e-06
3.00432e-08
1.20808e-06
8.85446e-08
1.212e-06
2.63649e-08
1.20028e-06
9.60332e-08
1.20937e-06
1.74547e-08
1.18439e-06
1.17915e-07
2.72544e-08
1.18909e-06
1.27901e-06
3.31032e-07
1.26576e-06
-5.11291e-07
1.27159e-06
5.51399e-07
1.25505e-06
-3.85696e-07
1.26089e-06
1.86343e-07
1.25941e-06
-2.27752e-08
1.26002e-06
-9.47028e-08
1.26326e-06
1.02536e-08
1.26403e-06
-1.45796e-08
1.26864e-06
-4.91495e-09
1.26638e-06
5.4584e-08
1.27299e-06
2.03262e-08
1.26705e-06
8.50081e-08
1.27444e-06
2.26493e-08
1.2654e-06
9.75883e-08
1.2726e-06
1.91627e-08
1.26172e-06
1.0691e-07
1.26591e-06
1.32657e-08
1.25401e-06
1.29813e-07
4.04747e-08
1.24079e-06
1.33756e-06
3.3758e-07
1.32538e-06
-4.99118e-07
1.32816e-06
5.48625e-07
1.31734e-06
-3.74876e-07
1.31693e-06
1.86753e-07
1.32326e-06
-2.91134e-08
1.31862e-06
-9.00612e-08
1.32617e-06
2.71119e-09
1.32303e-06
-1.14449e-08
1.33106e-06
-1.29405e-08
1.32639e-06
5.92508e-08
1.33455e-06
1.21695e-08
1.32908e-06
9.04751e-08
1.33522e-06
1.65115e-08
1.32996e-06
1.02849e-07
1.33302e-06
1.60992e-08
1.32869e-06
1.11236e-07
1.32668e-06
1.52807e-08
1.32226e-06
1.3423e-07
5.75716e-08
1.30517e-06
1.40051e-06
3.45426e-07
1.38986e-06
-4.88475e-07
1.39082e-06
5.47667e-07
1.38547e-06
-3.69524e-07
1.38065e-06
1.91571e-07
1.39165e-06
-4.01068e-08
1.38434e-06
-8.27497e-08
1.39221e-06
-5.16736e-09
1.3886e-06
-7.8335e-09
1.3958e-06
-2.01417e-08
1.39264e-06
6.24171e-08
1.39865e-06
6.16153e-09
1.39639e-06
9.27268e-08
1.39973e-06
1.31779e-08
1.39809e-06
1.04489e-07
1.3986e-06
1.55845e-08
1.39716e-06
1.12677e-07
1.39311e-06
1.93329e-08
1.39077e-06
1.36571e-07
7.45061e-08
1.37383e-06
1.46838e-06
3.52727e-07
1.4592e-06
-4.79297e-07
1.45991e-06
5.46952e-07
1.45823e-06
-3.67845e-07
1.4522e-06
1.97599e-07
1.46388e-06
-5.17783e-08
1.45676e-06
-7.56364e-08
1.46254e-06
-1.09402e-08
1.46015e-06
-5.44435e-09
1.46499e-06
-2.49848e-08
1.46386e-06
6.35477e-08
1.46765e-06
2.36837e-09
1.4675e-06
9.28786e-08
1.46931e-06
1.13634e-08
1.46923e-06
1.04575e-07
1.46883e-06
1.59863e-08
1.46853e-06
1.12969e-07
1.46336e-06
2.45052e-08
1.46253e-06
1.37402e-07
9.13402e-08
1.4457e-06
1.54101e-06
3.57937e-07
1.53295e-06
-4.71237e-07
1.53459e-06
5.4531e-07
1.53449e-06
-3.67743e-07
1.52976e-06
2.02327e-07
1.53953e-06
-6.15486e-08
1.53389e-06
-7.00008e-08
1.53732e-06
-1.4368e-08
1.53587e-06
-3.99602e-09
1.53878e-06
-2.78858e-08
1.53865e-06
6.36764e-08
1.54115e-06
-1.33216e-10
1.54178e-06
9.22433e-08
1.54291e-06
1.02406e-08
1.54353e-06
1.03947e-07
1.54249e-06
1.703e-08
1.54317e-06
1.12293e-07
1.53681e-06
3.08664e-08
1.53738e-06
1.36824e-07
1.07772e-07
1.52095e-06
1.61771e-06
3.60357e-07
1.61045e-06
-4.63975e-07
1.61345e-06
5.42303e-07
1.61343e-06
-3.67724e-07
1.61097e-06
2.04789e-07
1.61811e-06
-6.86889e-08
1.61383e-06
-6.57227e-08
1.61572e-06
-1.6258e-08
1.61446e-06
-2.73305e-09
1.61617e-06
-2.95988e-08
1.61624e-06
6.36081e-08
1.61799e-06
-1.88328e-09
1.61889e-06
9.13446e-08
1.61949e-06
9.64414e-09
1.6207e-06
1.02733e-07
1.61891e-06
1.88217e-08
1.62058e-06
1.10626e-07
1.61306e-06
3.83831e-08
1.61472e-06
1.35159e-07
1.23258e-07
1.59924e-06
1.69772e-06
3.60207e-07
1.69108e-06
-4.5733e-07
1.69535e-06
5.38032e-07
1.69468e-06
-3.67053e-07
1.69433e-06
2.05143e-07
1.6992e-06
-7.35661e-08
1.69577e-06
-6.22913e-08
1.6969e-06
-1.73865e-08
1.6955e-06
-1.32877e-09
1.6965e-06
-3.05983e-08
1.69651e-06
6.35901e-08
1.69768e-06
-3.04795e-09
1.69877e-06
9.02577e-08
1.69878e-06
9.63297e-09
1.70061e-06
1.00897e-07
1.69796e-06
2.14729e-08
1.70057e-06
1.08014e-07
1.69207e-06
4.689e-08
1.6944e-06
1.32827e-07
1.3729e-07
1.68037e-06
1.7807e-06
3.58228e-07
1.77457e-06
-4.51195e-07
1.77985e-06
5.32747e-07
1.77827e-06
-3.65477e-07
1.77952e-06
2.03899e-07
1.78275e-06
-7.67997e-08
1.77985e-06
-5.93903e-08
1.78064e-06
-1.81808e-08
1.7792e-06
1.14819e-10
1.77973e-06
-3.11309e-08
1.77978e-06
6.35436e-08
1.7804e-06
-3.66362e-09
1.78176e-06
8.88957e-08
1.78109e-06
1.02995e-08
1.7836e-06
9.83874e-08
1.78003e-06
2.50463e-08
1.78344e-06
1.04597e-07
1.77421e-06
5.61197e-08
1.77672e-06
1.30321e-07
1.49458e-07
1.76455e-06
1.86679e-06
3.55185e-07
1.86104e-06
-4.45443e-07
1.86716e-06
5.26625e-07
1.86462e-06
-3.62937e-07
1.86704e-06
2.01478e-07
1.86909e-06
-7.88422e-08
1.86665e-06
-5.69494e-08
1.86727e-06
-1.88031e-08
1.86605e-06
1.33656e-09
1.86625e-06
-3.13354e-08
1.86653e-06
6.32652e-08
1.86661e-06
-3.7445e-09
1.86839e-06
8.71145e-08
1.86698e-06
1.1713e-08
1.87019e-06
9.51764e-08
1.86571e-06
2.95262e-08
1.86968e-06
1.00622e-07
1.86009e-06
6.57148e-08
1.86224e-06
1.28172e-07
1.5947e-07
1.85223e-06
1.95643e-06
3.51597e-07
1.9509e-06
-4.39911e-07
1.95778e-06
5.19736e-07
1.95429e-06
-3.59442e-07
1.95766e-06
1.98106e-07
1.95874e-06
-7.99179e-08
1.9568e-06
-5.5014e-08
1.95726e-06
-1.92677e-08
1.9565e-06
2.09657e-09
1.95645e-06
-3.1276e-08
1.95718e-06
6.25354e-08
1.95673e-06
-3.29857e-09
1.95908e-06
8.47621e-08
1.9569e-06
1.38969e-08
1.96079e-06
9.1281e-08
1.95553e-06
3.47909e-08
1.95973e-06
9.64221e-08
1.95018e-06
7.526e-08
1.95151e-06
1.26845e-07
1.67211e-07
1.94377e-06
2.05008e-06
3.47709e-07
2.04458e-06
-4.34419e-07
2.05223e-06
5.12091e-07
2.04781e-06
-3.55017e-07
2.05204e-06
1.93872e-07
2.05223e-06
-8.01042e-08
2.05087e-06
-5.36549e-08
2.0511e-06
-1.95017e-08
2.05096e-06
2.23248e-09
2.05063e-06
-3.09409e-08
2.05199e-06
6.11752e-08
2.05101e-06
-2.32253e-09
2.05406e-06
8.17191e-08
2.05114e-06
1.68159e-08
2.05563e-06
8.67875e-08
2.04981e-06
4.06084e-08
2.05385e-06
9.23823e-08
2.04478e-06
8.43341e-08
2.04497e-06
1.26653e-07
1.72756e-07
2.03943e-06
2.14812e-06
3.43592e-07
2.1425e-06
-4.28799e-07
2.15092e-06
5.03674e-07
2.1456e-06
-3.49698e-07
2.15068e-06
1.88792e-07
2.14999e-06
-7.94143e-08
2.14928e-06
-5.29437e-08
2.14915e-06
-1.93806e-08
2.14974e-06
1.64781e-09
2.14905e-06
-3.02562e-08
2.15116e-06
5.90671e-08
2.14964e-06
-8.03542e-10
2.15343e-06
7.79312e-08
2.14988e-06
2.0367e-08
2.1548e-06
8.18657e-08
2.14875e-06
4.66619e-08
2.15224e-06
8.88912e-08
2.14401e-06
9.25688e-08
2.14294e-06
1.2772e-07
1.76361e-07
2.13933e-06
2.25085e-06
3.39233e-07
2.24495e-06
-4.22906e-07
2.25416e-06
4.94464e-07
2.24798e-06
-3.4351e-07
2.25392e-06
1.82847e-07
2.25235e-06
-7.78383e-08
2.25236e-06
-5.29589e-08
2.25174e-06
-1.87601e-08
2.25311e-06
2.82761e-10
2.25197e-06
-2.91187e-08
2.25488e-06
5.61559e-08
2.25282e-06
1.25859e-09
2.25732e-06
7.34319e-08
2.25331e-06
2.43695e-08
2.25841e-06
7.6768e-08
2.25247e-06
5.2599e-08
2.25508e-06
8.62883e-08
2.24795e-06
9.9697e-08
2.24568e-06
1.29989e-07
1.78406e-07
2.24363e-06
2.35851e-06
3.346e-07
2.35222e-06
-4.16617e-07
2.36225e-06
4.84428e-07
2.3552e-06
-3.36459e-07
2.36205e-06
1.75996e-07
2.35957e-06
-7.53524e-08
2.3604e-06
-5.37897e-08
2.35914e-06
-1.75015e-08
2.36133e-06
-1.90508e-09
2.35965e-06
-2.74348e-08
2.36335e-06
5.24466e-08
2.36079e-06
3.81841e-09
2.36587e-06
6.83525e-08
2.36168e-06
2.85672e-08
2.36664e-06
7.18043e-08
2.36115e-06
5.80934e-08
2.36263e-06
8.48049e-08
2.35672e-06
1.05606e-07
2.35346e-06
1.33245e-07
1.79344e-07
2.35253e-06
2.47133e-06
3.29661e-07
2.46455e-06
-4.09833e-07
2.47545e-06
4.73525e-07
2.46752e-06
-3.28521e-07
2.47534e-06
1.68176e-07
2.4719e-06
-7.1917e-08
2.47364e-06
-5.55317e-08
2.47163e-06
-1.54902e-08
2.47467e-06
-4.9412e-09
2.47239e-06
-2.51564e-08
2.47683e-06
4.80088e-08
2.47389e-06
6.75402e-09
2.47933e-06
6.29168e-08
2.47524e-06
3.26491e-08
2.47975e-06
6.72953e-08
2.47495e-06
6.28971e-08
2.47523e-06
8.45227e-08
2.47047e-06
1.10363e-07
2.46658e-06
1.37143e-07
1.79635e-07
2.46629e-06
2.58957e-06
3.24387e-07
2.5822e-06
-4.02468e-07
2.59403e-06
4.61697e-07
2.58516e-06
-3.19651e-07
2.59403e-06
1.59309e-07
2.58959e-06
-6.74784e-08
2.59233e-06
-5.82751e-08
2.58949e-06
-1.26499e-08
2.59337e-06
-8.81925e-09
2.59052e-06
-2.2306e-08
2.59554e-06
4.2985e-08
2.59244e-06
9.85434e-09
2.59794e-06
5.74192e-08
2.5943e-06
3.62873e-08
2.59808e-06
6.35172e-08
2.5941e-06
6.68808e-08
2.59326e-06
8.53599e-08
2.58944e-06
1.14186e-07
2.5853e-06
1.41279e-07
1.79702e-07
2.58523e-06
2.71346e-06
3.18753e-07
2.70544e-06
-3.94443e-07
2.71826e-06
4.48873e-07
2.7084e-06
-3.09784e-07
2.7184e-06
1.49305e-07
2.7129e-06
-6.19784e-08
2.71671e-06
-6.20891e-08
2.71302e-06
-8.95292e-09
2.71768e-06
-1.34822e-08
2.71437e-06
-1.89973e-08
2.71975e-06
3.76015e-08
2.71679e-06
1.28224e-08
2.72202e-06
5.21834e-08
2.71911e-06
3.91985e-08
2.72199e-06
6.06397e-08
2.71881e-06
7.0061e-08
2.71706e-06
8.7111e-08
2.71389e-06
1.1735e-07
2.70989e-06
1.45285e-07
1.79856e-07
2.70973e-06
2.84329e-06
3.12733e-07
2.83452e-06
-3.85679e-07
2.84843e-06
4.34963e-07
2.83749e-06
-2.98844e-07
2.84872e-06
1.38074e-07
2.84211e-06
-5.53679e-08
2.84703e-06
-6.70069e-08
2.84252e-06
-4.43693e-09
2.84783e-06
-1.87959e-08
2.84428e-06
-1.54497e-08
2.84972e-06
3.21657e-08
2.84723e-06
1.53109e-08
2.85191e-06
4.7503e-08
2.8499e-06
4.12073e-08
2.85186e-06
5.86771e-08
2.84933e-06
7.2599e-08
2.84692e-06
8.95191e-08
2.84417e-06
1.20094e-07
2.84056e-06
1.48896e-07
1.80268e-07
2.84015e-06
2.97932e-06
3.06305e-07
2.96973e-06
-3.7609e-07
2.98483e-06
4.19866e-07
2.97274e-06
-2.86751e-07
2.98528e-06
1.25536e-07
2.97753e-06
-4.76237e-08
2.98354e-06
-7.30086e-08
2.97832e-06
7.81881e-10
2.98406e-06
-2.45404e-08
2.98059e-06
-1.19777e-08
2.98571e-06
2.70419e-08
2.98405e-06
1.69692e-08
2.98797e-06
4.35862e-08
2.98689e-06
4.22919e-08
2.9881e-06
5.7467e-08
2.98593e-06
7.47612e-08
2.9831e-06
9.23574e-08
2.98062e-06
1.22573e-07
2.97755e-06
1.51966e-07
1.80971e-07
2.97684e-06
3.12187e-06
2.99446e-07
3.11136e-06
-3.65582e-07
3.12776e-06
4.03467e-07
3.11444e-06
-2.73435e-07
3.12834e-06
1.11635e-07
3.11949e-06
-3.8768e-08
3.12648e-06
-7.99998e-08
3.12077e-06
6.48647e-09
3.12662e-06
-3.0385e-08
3.12363e-06
-8.99433e-09
3.12805e-06
2.26233e-08
3.12752e-06
1.75042e-08
3.1306e-06
4.05044e-08
3.13031e-06
4.25841e-08
3.13106e-06
5.67122e-08
3.12899e-06
7.68308e-08
3.12585e-06
9.55012e-08
3.12349e-06
1.24928e-07
3.12106e-06
1.54402e-07
1.81893e-07
3.12014e-06
3.27122e-06
2.92133e-07
3.2597e-06
-3.54058e-07
3.27751e-06
3.85651e-07
3.26292e-06
-2.58845e-07
3.2782e-06
9.63604e-08
3.26832e-06
-2.88917e-08
3.27612e-06
-8.77932e-08
3.27025e-06
1.23513e-08
3.27577e-06
-3.59019e-08
3.27374e-06
-6.97044e-09
3.27708e-06
1.92843e-08
3.27785e-06
1.67333e-08
3.28019e-06
3.81684e-08
3.28046e-06
4.23112e-08
3.28112e-06
5.60586e-08
3.27897e-06
7.89805e-08
3.27543e-06
9.90345e-08
3.27289e-06
1.27471e-07
3.27139e-06
1.55904e-07
1.83054e-07
3.27023e-06
3.42772e-06
2.84348e-07
3.41507e-06
-3.41417e-07
3.43441e-06
3.66313e-07
3.41854e-06
-2.42968e-07
3.43513e-06
7.97657e-08
3.42442e-06
-1.81824e-08
3.43271e-06
-9.60784e-08
3.42714e-06
1.79186e-08
3.4318e-06
-4.05595e-08
3.43124e-06
-6.41324e-09
3.43319e-06
1.7332e-08
3.4353e-06
1.46225e-08
3.43711e-06
3.63624e-08
3.43772e-06
4.17022e-08
3.43868e-06
5.51014e-08
3.43674e-06
8.09122e-08
3.43219e-06
1.03584e-07
3.42847e-06
1.31191e-07
3.42818e-06
1.56196e-07
1.84357e-07
3.42688e-06
3.59168e-06
2.76078e-07
3.57784e-06
-3.27572e-07
3.59877e-06
3.4538e-07
3.58165e-06
-2.25853e-07
3.59943e-06
6.19891e-08
3.58819e-06
-6.93782e-09
3.59654e-06
-1.0443e-07
3.59181e-06
2.26428e-08
3.59507e-06
-4.38194e-08
3.59637e-06
-7.70484e-09
3.59686e-06
1.68361e-08
3.60008e-06
1.14036e-08
3.60176e-06
3.46799e-08
3.60246e-06
4.10071e-08
3.60424e-06
5.33147e-08
3.60559e-06
7.95642e-08
3.60645e-06
1.02727e-07
3.6013e-06
1.36338e-07
3.58584e-06
1.71658e-07
1.80982e-07
3.58922e-06
3.76347e-06
2.67317e-07
3.74835e-06
-3.12458e-07
3.7709e-06
3.22832e-07
3.75268e-06
-2.07632e-07
3.7714e-06
4.32722e-08
3.76002e-06
4.43392e-09
3.76794e-06
-1.12348e-07
3.7646e-06
2.59815e-08
3.76605e-06
-4.52627e-08
3.76928e-06
-1.09396e-08
3.76865e-06
1.74714e-08
3.77238e-06
7.66859e-09
3.77468e-06
3.2383e-08
3.77535e-06
4.03346e-08
3.77842e-06
5.02475e-08
3.78406e-06
7.39261e-08
3.78967e-06
9.71091e-08
3.79864e-06
1.27377e-07
3.81211e-06
1.5818e-07
2.03589e-07
3.78951e-06
3.94343e-06
2.58071e-07
3.92703e-06
-2.96052e-07
3.95113e-06
2.98735e-07
3.93204e-06
-1.88551e-07
3.95133e-06
2.39856e-08
3.94037e-06
1.5393e-08
3.94729e-06
-1.19263e-07
3.94584e-06
2.74287e-08
3.94522e-06
-4.4639e-08
3.95021e-06
-1.59291e-08
3.94902e-06
1.86553e-08
3.9526e-06
4.08961e-09
3.95623e-06
2.8753e-08
3.95799e-06
3.85704e-08
3.96055e-06
4.7697e-08
3.95401e-06
8.04659e-08
3.94383e-06
1.07285e-07
3.93809e-06
1.33121e-07
3.93021e-06
1.66061e-07
1.96262e-07
3.93753e-06
4.13196e-06
2.48358e-07
4.1143e-06
-2.78388e-07
4.13976e-06
2.73269e-07
4.1202e-06
-1.68985e-07
4.13957e-06
4.61204e-09
4.12965e-06
2.53189e-08
4.13501e-06
-1.24623e-07
4.1358e-06
2.6638e-08
4.13313e-06
-4.19709e-08
4.1394e-06
-2.22012e-08
4.13839e-06
1.96659e-08
4.14133e-06
1.1451e-09
4.1445e-06
2.55848e-08
4.13923e-06
4.38451e-08
4.13237e-06
5.45595e-08
4.13051e-06
8.23199e-08
4.12681e-06
1.10982e-07
4.12232e-06
1.37617e-07
4.12038e-06
1.67995e-07
1.91667e-07
4.12498e-06
4.32945e-06
2.38212e-07
4.31063e-06
-2.59569e-07
4.33715e-06
2.46754e-07
4.3176e-06
-1.49441e-07
4.33651e-06
-1.42995e-08
4.32823e-06
3.35973e-08
4.33162e-06
-1.28012e-07
4.33472e-06
2.35417e-08
4.33035e-06
-3.76034e-08
4.33721e-06
-2.9058e-08
4.33639e-06
2.04891e-08
4.33503e-06
2.5007e-09
4.33409e-06
2.65261e-08
4.32867e-06
4.92647e-08
4.32456e-06
5.86726e-08
4.32262e-06
8.42555e-08
4.31959e-06
1.1401e-07
4.31668e-06
1.40532e-07
4.31745e-06
1.67225e-07
1.87825e-07
4.32129e-06
4.5363e-06
2.27689e-07
4.51652e-06
-2.39795e-07
4.5436e-06
2.19675e-07
4.52472e-06
-1.30562e-07
4.54258e-06
-3.21532e-08
4.53651e-06
3.96614e-08
4.53772e-06
-1.2922e-07
4.54287e-06
1.83876e-08
4.53733e-06
-3.20628e-08
4.54318e-06
-3.49024e-08
4.54061e-06
2.30572e-08
4.53546e-06
7.64837e-09
4.5354e-06
2.65849e-08
4.53066e-06
5.40044e-08
4.52624e-06
6.30944e-08
4.52453e-06
8.59675e-08
4.52231e-06
1.16225e-07
4.52047e-06
1.4238e-07
4.52284e-06
1.64854e-07
1.84874e-07
4.52579e-06
4.75294e-06
2.16861e-07
4.7325e-06
-2.19349e-07
4.7595e-06
1.92671e-07
4.74199e-06
-1.13052e-07
4.75828e-06
-4.84405e-08
4.75478e-06
4.31646e-08
4.75393e-06
-1.2837e-07
4.76054e-06
1.17747e-08
4.75395e-06
-2.54715e-08
4.7565e-06
-3.74515e-08
4.75308e-06
2.64731e-08
4.74666e-06
1.40686e-08
4.74669e-06
2.6557e-08
4.74303e-06
5.76594e-08
4.73816e-06
6.79652e-08
4.73645e-06
8.7678e-08
4.73507e-06
1.17611e-07
4.73431e-06
1.4314e-07
4.73646e-06
1.62697e-07
1.81793e-07
4.73954e-06
4.97984e-06
2.05817e-07
4.9591e-06
-1.98611e-07
4.98526e-06
1.66511e-07
4.96983e-06
-9.7624e-08
4.98421e-06
-6.28121e-08
4.98334e-06
4.40317e-08
4.9808e-06
-1.25827e-07
4.98781e-06
4.75678e-09
4.97922e-06
-1.68818e-08
4.97857e-06
-3.67941e-08
4.9759e-06
2.91396e-08
4.96863e-06
2.13399e-08
4.96836e-06
2.6827e-08
4.96586e-06
6.01547e-08
4.96082e-06
7.30094e-08
4.95885e-06
8.96443e-08
4.95826e-06
1.182e-07
4.95852e-06
1.42889e-07
4.96002e-06
1.61194e-07
1.78316e-07
4.9635e-06
5.21747e-06
1.9466e-07
5.19688e-06
-1.78018e-07
5.22138e-06
1.42008e-07
5.2086e-06
-8.48354e-08
5.221e-06
-7.52191e-08
5.22261e-06
4.24286e-08
5.21863e-06
-1.21855e-07
5.22476e-06
-1.36952e-09
5.21332e-06
-5.44392e-09
5.21094e-06
-3.44123e-08
5.20952e-06
3.0556e-08
5.20194e-06
2.89222e-08
5.20089e-06
2.78828e-08
5.19948e-06
6.15633e-08
5.19463e-06
7.78543e-08
5.19226e-06
9.20132e-08
5.19245e-06
1.18014e-07
5.19335e-06
1.41992e-07
5.19474e-06
1.59804e-07
1.74701e-07
5.19835e-06
5.46635e-06
1.83495e-07
5.44637e-06
-1.58038e-07
5.46854e-06
1.19843e-07
5.45851e-06
-7.48036e-08
5.46935e-06
-8.60641e-08
5.47296e-06
3.88202e-08
5.46764e-06
-1.16536e-07
5.47084e-06
-4.57076e-09
5.45831e-06
7.08509e-09
5.45456e-06
-3.06552e-08
5.45447e-06
3.06396e-08
5.44704e-06
3.63508e-08
5.44482e-06
3.01023e-08
5.44431e-06
6.20757e-08
5.44002e-06
8.21418e-08
5.43727e-06
9.47626e-08
5.43805e-06
1.17237e-07
5.43939e-06
1.40654e-07
5.44105e-06
1.58145e-07
1.71035e-07
5.44471e-06
5.72704e-06
1.72417e-07
5.70813e-06
-1.3913e-07
5.72752e-06
1.00453e-07
5.7198e-06
-6.70811e-08
5.72954e-06
-9.58112e-08
5.73362e-06
3.47461e-08
5.72441e-06
-1.07332e-07
5.72688e-06
-7.03865e-09
5.7152e-06
1.87634e-08
5.71024e-06
-2.56925e-08
5.71119e-06
2.96902e-08
5.70434e-06
4.32034e-08
5.70084e-06
3.35998e-08
5.70086e-06
6.20549e-08
5.69745e-06
8.5557e-08
5.6945e-06
9.77112e-08
5.69554e-06
1.1619e-07
5.6973e-06
1.38895e-07
5.6994e-06
1.56047e-07
1.67294e-07
5.70314e-06
6.0001e-06
1.61508e-07
5.98273e-06
-1.21757e-07
5.99919e-06
8.3993e-08
5.9926e-06
-6.04936e-08
6.00017e-06
-1.03382e-07
6.00236e-06
3.25566e-08
5.99142e-06
-9.63917e-08
5.99499e-06
-1.06106e-08
5.98502e-06
2.87391e-08
5.97855e-06
-1.92261e-08
5.98017e-06
2.80678e-08
5.97424e-06
4.91343e-08
5.96961e-06
3.8236e-08
5.96971e-06
6.19509e-08
5.96735e-06
8.79202e-08
5.96451e-06
1.00543e-07
5.96551e-06
1.152e-07
5.96769e-06
1.36715e-07
5.9703e-06
1.5343e-07
1.63414e-07
5.97418e-06
6.28618e-06
1.50817e-07
6.27066e-06
-1.06238e-07
6.28442e-06
7.02368e-08
6.27726e-06
-5.33335e-08
6.28209e-06
-1.08219e-07
6.28481e-06
2.98386e-08
6.27279e-06
-8.43673e-08
6.27628e-06
-1.41054e-08
6.26812e-06
3.69039e-08
6.26017e-06
-1.12758e-08
6.26197e-06
2.62689e-08
6.25723e-06
5.38711e-08
6.25176e-06
4.37054e-08
6.25155e-06
6.21634e-08
6.25021e-06
8.92533e-08
6.24788e-06
1.02881e-07
6.24858e-06
1.14494e-07
6.25114e-06
1.3416e-07
6.2543e-06
1.50264e-07
1.59328e-07
6.25839e-06
6.58591e-06
1.40373e-07
6.57239e-06
-9.27115e-08
6.58389e-06
5.8737e-08
6.5752e-06
-4.46483e-08
6.57817e-06
-1.11186e-07
6.58169e-06
2.63204e-08
6.56857e-06
-7.12536e-08
6.57117e-06
-1.66998e-08
6.56494e-06
4.31273e-08
6.5558e-06
-2.12719e-09
6.5572e-06
2.48624e-08
6.55381e-06
5.72626e-08
6.54792e-06
4.95951e-08
6.54712e-06
6.2966e-08
6.54664e-06
8.9735e-08
6.54508e-06
1.04437e-07
6.54547e-06
1.14101e-07
6.54829e-06
1.31341e-07
6.55199e-06
1.4657e-07
1.54968e-07
6.55635e-06
6.89999e-06
1.30178e-07
6.88833e-06
-8.10538e-08
6.89826e-06
4.88076e-08
6.88808e-06
-3.44693e-08
6.88879e-06
-1.119e-07
6.89302e-06
2.2091e-08
6.87908e-06
-5.73084e-08
6.8803e-06
-1.79284e-08
6.87602e-06
4.7414e-08
6.86612e-06
7.77166e-09
6.86662e-06
2.43594e-08
6.86453e-06
5.93553e-08
6.85869e-06
5.54393e-08
6.85718e-06
6.447e-08
6.8573e-06
8.96125e-08
6.85664e-06
1.05101e-07
6.85688e-06
1.13858e-07
6.85983e-06
1.28394e-07
6.86399e-06
1.4241e-07
1.5028e-07
6.86868e-06
7.2291e-06
1.20215e-07
7.21901e-06
-7.09618e-08
7.22819e-06
3.96278e-08
7.21674e-06
-2.30242e-08
7.21483e-06
-1.09987e-07
7.21934e-06
1.75845e-08
7.20488e-06
-4.28542e-08
7.20441e-06
-1.74601e-08
7.2019e-06
4.99263e-08
7.19181e-06
1.78601e-08
7.19105e-06
2.51256e-08
7.19002e-06
6.03857e-08
7.18463e-06
6.08258e-08
7.18249e-06
6.66118e-08
7.18298e-06
8.91179e-08
7.18314e-06
1.04943e-07
7.18349e-06
1.1351e-07
7.18647e-06
1.25413e-07
7.191e-06
1.37881e-07
1.45236e-07
7.19604e-06
7.57399e-06
1.10452e-07
7.56517e-06
-6.21474e-08
7.57425e-06
3.05567e-08
7.56215e-06
-1.09267e-08
7.5572e-06
-1.0504e-07
7.56125e-06
1.35338e-08
7.54662e-06
-2.82247e-08
7.54431e-06
-1.5151e-08
7.54324e-06
5.09975e-08
7.53351e-06
2.75927e-08
7.53133e-06
2.73031e-08
7.53098e-06
6.07347e-08
7.52634e-06
6.54647e-08
7.52377e-06
6.919e-08
7.52445e-06
8.8429e-08
7.52528e-06
1.04118e-07
7.52596e-06
1.12827e-07
7.52895e-06
1.22421e-07
7.53374e-06
1.33092e-07
1.39842e-07
7.53914e-06
7.93542e-06
1.00848e-07
7.92751e-06
-5.42464e-08
7.93713e-06
2.0945e-08
7.92559e-06
6.05965e-10
7.9168e-06
-9.62469e-08
7.9194e-06
1.09331e-08
7.90503e-06
-1.3854e-08
7.90086e-06
-1.09755e-08
7.90078e-06
5.10744e-08
7.89184e-06
3.6531e-08
7.88833e-06
3.08106e-08
7.88824e-06
6.08248e-08
7.88448e-06
6.92304e-08
7.88174e-06
7.19314e-08
7.88251e-06
8.76588e-08
7.88385e-06
1.02778e-07
7.885e-06
1.11669e-07
7.88804e-06
1.19384e-07
7.89299e-06
1.2814e-07
1.34129e-07
7.8987e-06
8.31415e-06
9.13811e-08
8.30678e-06
-4.68781e-08
8.31927e-06
8.45916e-09
8.30886e-06
1.10104e-08
8.29429e-06
-8.16722e-08
8.29449e-06
1.07255e-08
8.28088e-06
-2.4354e-10
8.27494e-06
-5.02712e-09
8.27531e-06
5.07028e-08
8.26746e-06
4.43774e-08
8.26287e-06
3.53999e-08
8.26268e-06
6.10155e-08
8.25976e-06
7.21485e-08
8.25712e-06
7.45771e-08
8.25794e-06
8.68387e-08
8.25967e-06
1.01044e-07
8.26135e-06
1.09984e-07
8.2645e-06
1.16239e-07
8.26954e-06
1.23098e-07
1.28154e-07
8.27552e-06
8.71099e-06
8.20539e-08
8.70514e-06
-4.10276e-08
8.72055e-06
-6.95669e-09
8.71202e-06
1.9546e-08
8.68961e-06
-5.92622e-08
8.68739e-06
1.29455e-08
8.67508e-06
1.20667e-08
8.66748e-06
2.56667e-09
8.66768e-06
5.05072e-08
8.66107e-06
5.09854e-08
8.65576e-06
4.07118e-08
8.65521e-06
6.15665e-08
8.65303e-06
7.43268e-08
8.65067e-06
7.69416e-08
8.65157e-06
8.59376e-08
8.65361e-06
9.90056e-08
8.65583e-06
1.07761e-07
8.65914e-06
1.12925e-07
8.66424e-06
1.18006e-07
1.21992e-07
8.6704e-06
9.1267e-06
7.29726e-08
9.12641e-06
-4.07351e-08
9.14241e-06
-2.29618e-08
9.12682e-06
3.51361e-08
9.10244e-06
-3.48838e-08
9.09922e-06
1.61692e-08
9.08848e-06
2.28125e-08
9.07947e-06
1.15708e-08
9.07888e-06
5.10938e-08
9.07346e-06
5.64089e-08
9.06784e-06
4.63364e-08
9.06678e-06
6.26201e-08
9.06519e-06
7.59154e-08
9.06323e-06
7.89107e-08
9.0642e-06
8.49636e-08
9.06652e-06
9.66798e-08
9.06927e-06
1.05015e-07
9.07281e-06
1.09383e-07
9.07794e-06
1.12882e-07
1.15719e-07
9.08421e-06
9.56206e-06
6.43767e-08
9.55754e-06
-3.62194e-08
9.55985e-06
-2.52712e-08
9.55312e-06
4.18685e-08
9.53434e-06
-1.61055e-08
9.53103e-06
1.94763e-08
9.52191e-06
3.19338e-08
9.51171e-06
2.17746e-08
9.50997e-06
5.28324e-08
9.50549e-06
6.08845e-08
9.49995e-06
5.18758e-08
9.49842e-06
6.41508e-08
9.49726e-06
7.70757e-08
9.49575e-06
8.04184e-08
9.49676e-06
8.39602e-08
9.4994e-06
9.40363e-08
9.50265e-06
1.01769e-07
9.50647e-06
1.05559e-07
9.51163e-06
1.07723e-07
1.0939e-07
9.51796e-06
1.0018e-05
5.65032e-08
1.00003e-05
-1.85209e-08
1.00031e-05
-2.80185e-08
1.00037e-05
4.12363e-08
9.98733e-06
2.53343e-10
9.98357e-06
2.32387e-08
9.97603e-06
3.94689e-08
9.96516e-06
3.26479e-08
9.96198e-06
5.60166e-08
9.95809e-06
6.47727e-08
9.9529e-06
5.70608e-08
9.95103e-06
6.60258e-08
9.95015e-06
7.79486e-08
9.94908e-06
8.14939e-08
9.95012e-06
8.29183e-08
9.95307e-06
9.10827e-08
9.95681e-06
9.80375e-08
9.96098e-06
1.01388e-07
9.9662e-06
1.02496e-07
1.03031e-07
9.97256e-06
1.04957e-05
4.94517e-08
1.04718e-05
5.32247e-09
1.04786e-05
-3.47758e-08
1.04793e-05
4.05054e-08
1.04625e-05
1.71105e-08
1.04576e-05
2.81038e-08
1.04515e-05
4.56016e-08
1.04407e-05
4.34681e-08
1.04359e-05
6.07584e-08
1.04322e-05
6.85032e-08
1.04275e-05
6.17186e-08
1.04255e-05
6.80762e-08
1.04248e-05
7.86242e-08
1.04241e-05
8.21572e-08
1.04252e-05
8.18342e-08
1.04284e-05
8.78681e-08
1.04326e-05
9.38384e-08
1.04372e-05
9.68106e-08
1.04426e-05
9.71377e-08
9.66708e-08
1.04489e-05
1.0997e-05
4.24407e-08
1.10069e-05
-4.5202e-09
1.09915e-05
-1.9399e-08
1.09782e-05
5.37888e-08
1.09606e-05
3.46734e-08
1.09544e-05
3.43122e-08
1.09494e-05
5.06467e-08
1.09392e-05
5.36977e-08
1.0933e-05
6.69079e-08
1.0929e-05
7.25671e-08
1.09248e-05
6.59083e-08
1.09227e-05
7.01526e-08
1.09222e-05
7.9139e-08
1.09219e-05
8.24418e-08
1.0923e-05
8.07432e-08
1.09264e-05
8.44547e-08
1.0931e-05
8.92e-08
1.09361e-05
9.17718e-08
1.09416e-05
9.15612e-08
9.02972e-08
1.0948e-05
1.1521e-05
3.68213e-08
1.1502e-05
1.44876e-08
1.15024e-05
-1.98132e-08
1.15017e-05
5.45215e-08
1.14845e-05
5.17885e-08
1.14755e-05
4.33694e-08
1.14707e-05
5.54251e-08
1.14615e-05
6.29486e-08
1.14543e-05
7.40308e-08
1.14496e-05
7.72533e-08
1.14458e-05
6.98019e-08
1.14438e-05
7.20672e-08
1.14436e-05
7.93924e-08
1.14438e-05
8.22663e-08
1.14448e-05
7.97449e-08
1.14483e-05
8.08773e-08
1.14534e-05
8.41743e-08
1.14589e-05
8.62528e-08
1.14647e-05
8.57065e-08
8.38455e-08
1.14712e-05
1.20709e-05
3.17279e-08
1.20553e-05
3.00618e-08
1.2047e-05
-1.14329e-08
1.20489e-05
5.26006e-08
1.20338e-05
6.68687e-08
1.2022e-05
5.51244e-08
1.20168e-05
6.06587e-08
1.20087e-05
7.10896e-08
1.2001e-05
8.16772e-08
1.19955e-05
8.27411e-08
1.19916e-05
7.3769e-08
1.19898e-05
7.37973e-08
1.19899e-05
7.93442e-08
1.19905e-05
8.16145e-08
1.19915e-05
7.87729e-08
1.19951e-05
7.72576e-08
1.20005e-05
7.88308e-08
1.20065e-05
8.02496e-08
1.20127e-05
7.94979e-08
7.7233e-08
1.20193e-05
1.26467e-05
2.76471e-08
1.26309e-05
4.58279e-08
1.26218e-05
-2.30019e-09
1.26227e-05
5.1702e-08
1.26091e-05
8.04849e-08
1.25953e-05
6.89098e-08
1.25888e-05
6.71012e-08
1.25816e-05
7.83101e-08
1.25739e-05
8.93855e-08
1.25676e-05
8.9007e-08
1.25633e-05
7.80865e-08
1.25618e-05
7.53613e-08
1.25621e-05
7.89588e-08
1.25632e-05
8.05908e-08
1.25645e-05
7.73847e-08
1.2568e-05
7.3832e-08
1.25736e-05
7.32379e-08
1.258e-05
7.38274e-08
1.25866e-05
7.28763e-08
7.03932e-08
1.25935e-05
1.32501e-05
2.44882e-08
1.32438e-05
5.21476e-08
1.32288e-05
1.26233e-08
1.32241e-05
5.64929e-08
1.32114e-05
9.31259e-08
1.31964e-05
8.39558e-08
1.31883e-05
7.52177e-08
1.31816e-05
8.49329e-08
1.31742e-05
9.6842e-08
1.31673e-05
9.58763e-08
1.31624e-05
8.29725e-08
1.31608e-05
7.69771e-08
1.31614e-05
7.83222e-08
1.31628e-05
7.91997e-08
1.31648e-05
7.53973e-08
1.31681e-05
7.05543e-08
1.31739e-05
6.74755e-08
1.31805e-05
6.71731e-08
1.31876e-05
6.57784e-08
6.32188e-08
1.31948e-05
1.38823e-05
2.23208e-08
1.38787e-05
5.57628e-08
1.38614e-05
2.99205e-08
1.38542e-05
6.36659e-08
1.38426e-05
1.04792e-07
1.38267e-05
9.98569e-08
1.38166e-05
8.53295e-08
1.381e-05
9.14853e-08
1.3803e-05
1.03877e-07
1.37958e-05
1.03076e-07
1.37903e-05
8.84936e-08
1.37883e-05
7.89427e-08
1.3789e-05
7.75677e-08
1.37909e-05
7.7356e-08
1.37934e-05
7.28831e-08
1.37969e-05
6.70678e-08
1.38028e-05
6.15964e-08
1.38094e-05
6.0536e-08
1.38171e-05
5.81272e-08
5.55934e-08
1.38247e-05
1.45446e-05
2.13711e-08
1.45311e-05
6.9308e-08
1.45192e-05
4.17955e-08
1.45146e-05
6.8214e-08
1.45038e-05
1.15607e-07
1.44874e-05
1.1629e-07
1.44753e-05
9.74728e-08
1.44681e-05
9.86035e-08
1.44616e-05
1.10461e-07
1.44543e-05
1.1032e-07
1.44482e-05
9.45909e-08
1.44456e-05
8.15163e-08
1.44463e-05
7.68812e-08
1.44486e-05
7.51042e-08
1.44515e-05
6.99153e-08
1.44556e-05
6.30382e-08
1.44614e-05
5.57569e-08
1.44682e-05
5.37933e-08
1.44762e-05
5.00674e-08
4.74034e-08
1.44844e-05
1.52389e-05
2.13108e-08
1.52314e-05
7.68358e-08
1.52141e-05
5.91577e-08
1.52058e-05
7.64714e-08
1.51963e-05
1.25116e-07
1.51798e-05
1.32753e-07
1.51658e-05
1.11516e-07
1.51575e-05
1.06909e-07
1.51511e-05
1.16791e-07
1.5144e-05
1.17449e-07
1.51374e-05
1.01156e-07
1.51341e-05
8.48913e-08
1.51345e-05
7.64701e-08
1.5137e-05
7.25925e-08
1.51405e-05
6.64396e-08
1.51451e-05
5.84016e-08
1.51507e-05
5.02068e-08
1.51583e-05
4.61327e-08
1.51662e-05
4.21566e-08
3.84298e-08
1.51752e-05
1.59664e-05
2.22825e-08
1.59634e-05
7.98009e-08
1.59413e-05
8.12074e-08
1.59305e-05
8.73487e-08
1.59214e-05
1.34192e-07
1.59053e-05
1.48841e-07
1.58896e-05
1.27236e-07
1.58797e-05
1.16822e-07
1.58731e-05
1.23342e-07
1.58662e-05
1.24364e-07
1.58593e-05
1.08022e-07
1.58551e-05
8.91308e-08
1.5855e-05
7.65829e-08
1.58576e-05
6.99686e-08
1.58616e-05
6.24894e-08
1.58666e-05
5.33782e-08
1.58725e-05
4.43391e-08
1.58806e-05
3.80123e-08
1.58891e-05
3.36472e-08
2.9345e-08
1.58982e-05
1.67281e-05
2.47788e-08
1.67101e-05
9.77806e-08
1.6701e-05
9.03356e-08
1.66904e-05
9.79039e-08
1.66806e-05
1.44031e-07
1.66651e-05
1.64296e-07
1.66482e-05
1.44223e-07
1.66364e-05
1.28548e-07
1.66291e-05
1.30641e-07
1.66223e-05
1.31211e-07
1.66152e-05
1.15102e-07
1.66102e-05
9.41292e-08
1.66093e-05
7.75203e-08
1.66118e-05
6.74619e-08
1.6616e-05
5.8228e-08
1.66214e-05
4.80083e-08
1.6628e-05
3.77914e-08
1.66362e-05
2.97304e-08
1.66458e-05
2.40692e-08
2.02463e-08
1.66549e-05
1.75278e-05
2.73649e-08
1.75397e-05
8.58783e-08
1.75088e-05
1.21164e-07
1.74861e-05
1.20644e-07
1.74757e-05
1.544e-07
1.7461e-05
1.79032e-07
1.74431e-05
1.6213e-07
1.74294e-05
1.42294e-07
1.74207e-05
1.39264e-07
1.74136e-05
1.38339e-07
1.74062e-05
1.22503e-07
1.74006e-05
9.97217e-08
1.73986e-05
7.94986e-08
1.74007e-05
6.54143e-08
1.74051e-05
5.3795e-08
1.7411e-05
4.21511e-08
1.74182e-05
3.05625e-08
1.74269e-05
2.10184e-08
1.74369e-05
1.40926e-08
9.71976e-09
1.74474e-05
1.83641e-05
3.16214e-08
1.83462e-05
1.03728e-07
1.83384e-05
1.29001e-07
1.83217e-05
1.37374e-07
1.8309e-05
1.6705e-07
1.82945e-05
1.93558e-07
1.8276e-05
1.80604e-07
1.82602e-05
1.58125e-07
1.82498e-05
1.49629e-07
1.8242e-05
1.462e-07
1.82341e-05
1.3035e-07
1.8228e-05
1.05824e-07
1.82248e-05
8.26957e-08
1.8226e-05
6.41848e-08
1.82304e-05
4.94044e-08
1.82368e-05
3.58091e-08
1.82447e-05
2.26168e-08
1.82542e-05
1.15742e-08
1.82649e-05
3.39586e-09
-2.04826e-09
1.82766e-05
1.92419e-05
3.6157e-08
1.92398e-05
1.05782e-07
1.92145e-05
1.5433e-07
1.91967e-05
1.55149e-07
1.91819e-05
1.81841e-07
1.91675e-05
2.07962e-07
1.91486e-05
1.99497e-07
1.91306e-05
1.76103e-07
1.91181e-05
1.62177e-07
1.91089e-05
1.55344e-07
1.91004e-05
1.38896e-07
1.90935e-05
1.12764e-07
1.9089e-05