/*--------------------------------*- C++ -*----------------------------------*\
| =========                 |                                                 |
| \\      /  F ield         | OpenFOAM: The Open Source CFD Toolbox           |
|  \\    /   O peration     | Version:  v2012                                 |
|   \\  /    A nd           | Website:  www.openfoam.com                      |
|    \\/     M anipulation  |                                                 |
\*---------------------------------------------------------------------------*/
FoamFile
{
    version     2.0;
    format      ascii;
    class       volScalarField;
    location    "0.85";
    object      p;
}
// * * * * * * * * * * * * * * * * * * * * * * * * * * * * * * * * * * * * * //

dimensions      [0 2 -2 0 0 0 0];


internalField   nonuniform List<scalar> 
17600
(
-8.58379e-11
-0.00146593
-0.00172919
-0.00186178
-0.00220573
-0.00216819
-0.00227377
-0.00306479
-0.00301839
-0.00423783
-0.00436318
-0.00517601
-0.00516857
-0.0055478
-0.00558551
-0.00512981
-0.00447622
-0.00269732
-0.00103918
0.00295477
7.68503e-07
-0.00146838
-0.00172837
-0.00186239
-0.00220561
-0.00216903
-0.00227247
-0.00306692
-0.00301701
-0.0042424
-0.00436127
-0.00518228
-0.00516621
-0.0055574
-0.00558137
-0.0051493
-0.00446774
-0.00277538
-0.00102498
0.00263116
7.04274e-07
-0.00147199
-0.00172634
-0.0018632
-0.00220515
-0.00217082
-0.00227119
-0.00307063
-0.0030164
-0.00424967
-0.00435956
-0.00519183
-0.0051636
-0.00557092
-0.00557702
-0.00517349
-0.00445854
-0.00284398
-0.00103049
0.00219985
-1.11991e-06
-0.00147581
-0.00172355
-0.00186357
-0.00220452
-0.00217387
-0.00227078
-0.00307533
-0.00301745
-0.00425825
-0.0043593
-0.00520155
-0.00516211
-0.00558402
-0.00557427
-0.00519704
-0.00445076
-0.00291332
-0.00106708
0.00177173
-4.65146e-06
-0.00147982
-0.00172012
-0.00186334
-0.00220386
-0.00217835
-0.00227079
-0.0030809
-0.00301911
-0.00426776
-0.00435907
-0.00521074
-0.00516041
-0.00559651
-0.00557171
-0.00522054
-0.00444573
-0.00298584
-0.00113452
0.00136521
-9.65872e-06
-0.00148399
-0.00171603
-0.00186252
-0.00220324
-0.00218404
-0.00227074
-0.00308702
-0.00302049
-0.00427769
-0.004358
-0.00521919
-0.00515794
-0.00560859
-0.00556923
-0.00524461
-0.00444501
-0.00306191
-0.00123233
0.000981582
-1.58493e-05
-0.00148824
-0.00171131
-0.00186118
-0.00220264
-0.0021906
-0.00227048
-0.00309336
-0.00302139
-0.0042877
-0.0043564
-0.00522685
-0.00515543
-0.00562022
-0.00556806
-0.00526911
-0.0044507
-0.00314179
-0.00135987
0.00061628
-2.28793e-05
-0.00149249
-0.00170603
-0.00185937
-0.00220201
-0.00219776
-0.00227001
-0.00309977
-0.00302201
-0.00429773
-0.00435485
-0.00523371
-0.00515377
-0.00563113
-0.00556968
-0.00529324
-0.004465
-0.003224
-0.00151589
0.000263291
-3.04439e-05
-0.00149676
-0.00170028
-0.0018572
-0.00220136
-0.00220536
-0.00226944
-0.00310622
-0.00302265
-0.00430776
-0.00435374
-0.00523979
-0.0051535
-0.00564097
-0.00557523
-0.00531614
-0.00448996
-0.00330861
-0.00169809
-8.36871e-05
-3.83457e-05
-0.00150109
-0.00169412
-0.00185479
-0.00220069
-0.00221327
-0.00226884
-0.00311271
-0.00302352
-0.00431769
-0.00435336
-0.00524491
-0.00515502
-0.00564934
-0.00558558
-0.00533726
-0.00452726
-0.00339613
-0.00190294
-0.000430297
-4.64921e-05
-0.00150555
-0.0016876
-0.0018522
-0.00220002
-0.00222141
-0.00226828
-0.00311917
-0.00302476
-0.0043273
-0.00435402
-0.00524869
-0.00515898
-0.00565566
-0.00560143
-0.00535653
-0.00457792
-0.00348844
-0.0021259
-0.000780832
-5.48513e-05
-0.0015102
-0.00168079
-0.00184949
-0.00219937
-0.00222968
-0.00226775
-0.00312553
-0.00302649
-0.00433637
-0.00435607
-0.00525067
-0.00516612
-0.00565936
-0.00562343
-0.0053742
-0.00464191
-0.00358886
-0.00236207
-0.0011377
-6.34133e-05
-0.00151506
-0.00167372
-0.00184666
-0.00219876
-0.00223798
-0.00226731
-0.00313168
-0.00302884
-0.00434461
-0.00435994
-0.00525039
-0.00517713
-0.00566008
-0.00565234
-0.0053914
-0.00471791
-0.00370135
-0.00260695
-0.0015013
-7.21723e-05
-0.00152014
-0.00166643
-0.0018437
-0.00219821
-0.00224621
-0.00226698
-0.00313748
-0.00303201
-0.00435167
-0.0043661
-0.00524737
-0.00519261
-0.00565768
-0.00568848
-0.00541002
-0.00480362
-0.00382955
-0.00285741
-0.00187052
-8.11234e-05
-0.00152544
-0.00165895
-0.00184057
-0.00219778
-0.00225427
-0.00226683
-0.00314278
-0.00303623
-0.00435721
-0.00437504
-0.00524119
-0.00521296
-0.00565242
-0.00573155
-0.00543286
-0.00489641
-0.00397602
-0.00311215
-0.00224317
-9.02647e-05
-0.00153096
-0.00165132
-0.00183721
-0.00219751
-0.00226203
-0.00226697
-0.00314737
-0.00304176
-0.00436085
-0.00438726
-0.00523157
-0.00523814
-0.00564458
-0.00578072
-0.00546319
-0.0049942
-0.0041421
-0.00337125
-0.00261649
-9.96003e-05
-0.00153666
-0.00164359
-0.00183355
-0.00219749
-0.00226936
-0.00226752
-0.00315098
-0.00304891
-0.00436219
-0.00440318
-0.00521843
-0.00526796
-0.00563665
-0.0058343
-0.00550429
-0.00509626
-0.00432771
-0.0036359
-0.00298776
-0.000109141
-0.00154251
-0.00163581
-0.0018295
-0.00219779
-0.00227611
-0.00226864
-0.00315335
-0.00305798
-0.00436091
-0.0044231
-0.00520191
-0.00530217
-0.00562999
-0.00588986
-0.00555875
-0.00520311
-0.00453125
-0.00390826
-0.00335484
-0.000118905
-0.00154847
-0.00162807
-0.00182493
-0.00219854
-0.0022821
-0.0022705
-0.00315423
-0.00306928
-0.00435674
-0.00444708
-0.00518253
-0.00533995
-0.00562682
-0.00594541
-0.0056282
-0.00531598
-0.00475028
-0.00419078
-0.00371633
-0.000128917
-0.00155446
-0.00162045
-0.00181973
-0.00219988
-0.00228708
-0.00227328
-0.00315338
-0.00308302
-0.0043496
-0.00447481
-0.00516125
-0.00537981
-0.00562932
-0.00600016
-0.00571337
-0.00543678
-0.00498229
-0.00448571
-0.004072
-0.000139216
-0.00156038
-0.00161307
-0.00181373
-0.00220197
-0.00229083
-0.00227715
-0.00315063
-0.00309933
-0.00433964
-0.00450566
-0.00513914
-0.00542014
-0.0056392
-0.00605415
-0.00581407
-0.0055678
-0.00522509
-0.00479465
-0.00442325
-0.00014986
-0.00156611
-0.00160606
-0.00180671
-0.00220503
-0.00229318
-0.0022822
-0.00314586
-0.00311815
-0.00432728
-0.00453865
-0.00511825
-0.00545952
-0.00565764
-0.00610822
-0.00592966
-0.00571134
-0.00547681
-0.0051184
-0.00477325
-0.000160925
-0.00157149
-0.00159962
-0.00179845
-0.00220919
-0.00229398
-0.00228846
-0.0031391
-0.0031391
-0.00431335
-0.00457266
-0.00509994
-0.00549698
-0.0056853
-0.00616385
-0.00605948
-0.00586982
-0.00573592
-0.00545677
-0.00512667
-0.000172514
-0.00157628
-0.00159395
-0.00178874
-0.00221457
-0.00229318
-0.00229588
-0.00313056
-0.00316147
-0.00429894
-0.00460657
-0.00508463
-0.00553205
-0.00572238
-0.00622258
-0.00620287
-0.00604569
-0.0060013
-0.00580826
-0.00548882
-0.000184761
-0.0015802
-0.00158926
-0.00177741
-0.00222128
-0.00229077
-0.00230417
-0.00312075
-0.00318429
-0.00428496
-0.00463956
-0.00507283
-0.00556502
-0.00576895
-0.00628587
-0.00635896
-0.00624096
-0.00627251
-0.00617006
-0.00586438
-0.000197826
-0.00158293
-0.00158578
-0.00176427
-0.00222935
-0.00228692
-0.00231278
-0.00311054
-0.00320657
-0.00427185
-0.00467114
-0.00506467
-0.0055969
-0.00582544
-0.00635538
-0.00652658
-0.00645669
-0.00654993
-0.00653857
-0.00625601
-0.000211915
-0.00158406
-0.00158369
-0.00174923
-0.00223859
-0.00228178
-0.00232099
-0.00310093
-0.00322744
-0.00425974
-0.00470131
-0.00506001
-0.00562891
-0.00589295
-0.00643349
-0.00670423
-0.00669252
-0.00683447
-0.00690978
-0.00666288
-0.00022729
-0.00158319
-0.00158312
-0.00173237
-0.00224871
-0.00227116
-0.00232772
-0.00309257
-0.0032464
-0.00424836
-0.00473077
-0.00505936
-0.00566204
-0.00597308
-0.00652292
-0.00689003
-0.00694664
-0.00712724
-0.00727976
-0.00708049
-0.000244261
-0.00157989
-0.00158407
-0.00171386
-0.00225938
-0.00226509
-0.00233183
-0.00308571
-0.00326337
-0.00423709
-0.00476061
-0.00506399
-0.00569725
-0.00606697
-0.00662602
-0.00708179
-0.00721618
-0.00742961
-0.007646
-0.00750198
-0.000263152
-0.00157379
-0.00158635
-0.00169381
-0.00226977
-0.00226128
-0.00233271
-0.00308049
-0.00327894
-0.00422512
-0.00479166
-0.00507593
-0.00573567
-0.00617489
-0.00674443
-0.00727729
-0.0074974
-0.00774291
-0.00800838
-0.00792027
-0.000284318
-0.00156461
-0.00158963
-0.00167285
-0.00227885
-0.00225967
-0.00233008
-0.00307657
-0.0032943
-0.00421236
-0.00482474
-0.00509781
-0.00577842
-0.00629594
-0.00687876
-0.00747467
-0.00778599
-0.00806788
-0.00836908
-0.00833006
-0.000308057
-0.00155231
-0.00159356
-0.0016527
-0.00228577
-0.00226047
-0.00232378
-0.00307322
-0.00331085
-0.004199
-0.00486086
-0.00513208
-0.00582656
-0.00642756
-0.00702859
-0.00767306
-0.0080778
-0.00840455
-0.00873087
-0.00872883
-0.000334537
-0.00153697
-0.00160182
-0.00163333
-0.00228997
-0.00226386
-0.00231442
-0.00306961
-0.00332963
-0.00418533
-0.00490082
-0.00518038
-0.00588104
-0.0065663
-0.00719273
-0.00787263
-0.00836897
-0.00875153
-0.00909628
-0.00911677
-0.000363882
-0.00151878
-0.00160344
-0.00161515
-0.00229125
-0.00226973
-0.00230306
-0.00306503
-0.00335151
-0.00417529
-0.00494493
-0.00524346
-0.00594253
-0.0067086
-0.00736954
-0.00807424
-0.00865578
-0.00910508
-0.00946709
-0.00949608
-0.000396167
-0.00149833
-0.00160248
-0.00159817
-0.00228971
-0.00227784
-0.00229057
-0.00305926
-0.00337774
-0.00417074
-0.0049934
-0.00532111
-0.00601134
-0.00685134
-0.00755732
-0.00827959
-0.00893509
-0.00945946
-0.00984348
-0.00987021
-0.000431281
-0.00147653
-0.00159838
-0.00158178
-0.00228567
-0.00228757
-0.00227759
-0.0030527
-0.00340984
-0.00417272
-0.0050451
-0.00541214
-0.00608786
-0.00699238
-0.00775473
-0.00849165
-0.0092058
-0.00980784
-0.0102228
-0.0102422
-0.000468964
-0.00145431
-0.00159071
-0.00156501
-0.00227915
-0.00230008
-0.0022653
-0.00304571
-0.003449
-0.00418279
-0.00509845
-0.00551478
-0.00617293
-0.00713031
-0.00795978
-0.00871388
-0.0094699
-0.0101442
-0.0105997
-0.0106131
-0.000508848
-0.00143263
-0.0015796
-0.00154683
-0.00226977
-0.00231602
-0.00225555
-0.00303864
-0.00349556
-0.00420255
-0.00515224
-0.00562664
-0.00626758
-0.00726412
-0.00816889
-0.00894839
-0.00973129
-0.0104654
-0.0109678
-0.0109817
-0.000550482
-0.00141232
-0.00156572
-0.00152663
-0.0022568
-0.00233495
-0.00225039
-0.00303209
-0.00354941
-0.00423332
-0.00520576
-0.00574474
-0.00637245
-0.00739341
-0.00837753
-0.009195
-0.00999435
-0.0107716
-0.0113214
-0.0113446
-0.000593409
-0.00139399
-0.0015501
-0.00150421
-0.00223926
-0.00235654
-0.00225172
-0.00302729
-0.00360998
-0.0042755
-0.00525905
-0.00586617
-0.00648748
-0.00751861
-0.00858107
-0.00945122
-0.0102632
-0.0110662
-0.0116571
-0.011697
-0.000637223
-0.00137858
-0.00153379
-0.00147997
-0.00221648
-0.00237962
-0.00226074
-0.00302612
-0.00367658
-0.00432893
-0.00531248
-0.00598858
-0.00661226
-0.00764104
-0.00877547
-0.00971237
-0.0105407
-0.011354
-0.011974
-0.012034
-0.000681582
-0.00136553
-0.00151766
-0.00145505
-0.00218832
-0.00240245
-0.00227815
-0.00303
-0.00374878
-0.00439371
-0.00536617
-0.00610952
-0.00674655
-0.00776322
-0.00895774
-0.00997204
-0.0108268
-0.0116405
-0.0122741
-0.0123514
-0.000726221
-0.0013548
-0.00150242
-0.00143098
-0.00215569
-0.00242364
-0.00230392
-0.00304027
-0.00382556
-0.00447007
-0.00542053
-0.00622647
-0.00688998
-0.00788864
-0.0091262
-0.0102223
-0.011118
-0.0119296
-0.0125617
-0.0126481
-0.000770897
-0.00134658
-0.00148856
-0.00140895
-0.00212063
-0.00244273
-0.00233656
-0.00305594
-0.00390553
-0.00455772
-0.00547721
-0.00633795
-0.00704158
-0.00802148
-0.00928151
-0.0104557
-0.0114069
-0.0122222
-0.012842
-0.0129259
-0.00081518
-0.0013412
-0.00147665
-0.00138973
-0.00208587
-0.00246042
-0.00237367
-0.00307504
-0.00398747
-0.00465623
-0.00553837
-0.00644313
-0.00719891
-0.00816513
-0.00942811
-0.0106679
-0.0116844
-0.0125149
-0.0131185
-0.0131885
-0.000858689
-0.00133866
-0.0014675
-0.00137411
-0.00205358
-0.00247844
-0.00241423
-0.00309528
-0.00406899
-0.00476524
-0.00560586
-0.00654072
-0.00735804
-0.00832119
-0.00957312
-0.0108596
-0.0119429
-0.0128008
-0.0133914
-0.0134395
-0.000901466
-0.00133877
-0.00146182
-0.00136308
-0.00202497
-0.00249882
-0.00245844
-0.00311506
-0.00414675
-0.00488313
-0.00568116
-0.00662945
-0.00751372
-0.00848938
-0.00972274
-0.0110344
-0.0121774
-0.0130721
-0.0136575
-0.0136811
-0.000943644
-0.00134156
-0.00146008
-0.00135771
-0.00200102
-0.00252317
-0.00250715
-0.00313367
-0.00421838
-0.00500726
-0.00576577
-0.00670909
-0.00765923
-0.00866621
-0.00988098
-0.0111979
-0.0123868
-0.0133218
-0.0139114
-0.0139133
-0.000985046
-0.00134719
-0.00146289
-0.00135887
-0.00198331
-0.00255203
-0.00256195
-0.00315089
-0.00428097
-0.00513472
-0.00586151
-0.00678145
-0.00778829
-0.00884382
-0.0100494
-0.0113565
-0.0125733
-0.0135455
-0.0141468
-0.0141331
-0.00102553
-0.00135575
-0.00147138
-0.00136685
-0.00197303
-0.00258574
-0.0026243
-0.00316709
-0.00433025
-0.00526175
-0.00597023
-0.00685046
-0.00789637
-0.00901098
-0.0102256
-0.0115167
-0.0127423
-0.0137421
-0.0143583
-0.0143358
-0.0010655
-0.00136725
-0.00148657
-0.00138222
-0.00197019
-0.00262842
-0.00269597
-0.00318351
-0.00436255
-0.00538276
-0.00609327
-0.00692224
-0.00798195
-0.00915678
-0.0104006
-0.0116813
-0.012901
-0.013914
-0.0145429
-0.0145166
-0.00110572
-0.00138201
-0.00150911
-0.00140615
-0.00197335
-0.00267975
-0.00278049
-0.00320296
-0.0043756
-0.00548985
-0.00622937
-0.00700374
-0.00804821
-0.00927263
-0.0105604
-0.0118464
-0.0130548
-0.0140669
-0.0147008
-0.0146722
-0.00114675
-0.00140043
-0.00153953
-0.00143988
-0.00198154
-0.00273723
-0.00288161
-0.0032306
-0.00436916
-0.00557527
-0.0063724
-0.00710043
-0.00810352
-0.0093545
-0.0106918
-0.0120007
-0.0132041
-0.0142063
-0.0148355
-0.0148017
-0.00118924
-0.00142248
-0.00157963
-0.0014852
-0.00199433
-0.00279834
-0.00300024
-0.00327405
-0.00434693
-0.00563059
-0.00651134
-0.00721469
-0.00815827
-0.0094053
-0.0107851
-0.0121292
-0.0133407
-0.0143331
-0.0149502
-0.0149061
-0.00123464
-0.00144801
-0.00162916
-0.00154545
-0.00201217
-0.00285842
-0.00313401
-0.00334178
-0.00431766
-0.00564862
-0.00663245
-0.00734268
-0.00822122
-0.00943464
-0.0108364
-0.0122195
-0.0134515
-0.0144414
-0.0150445
-0.014986
-0.00128477
-0.00147769
-0.00168658
-0.00162416
-0.00203864
-0.00291128
-0.00327749
-0.00344013
-0.004293
-0.00562956
-0.00672125
-0.00747256
-0.00829653
-0.0094528
-0.0108501
-0.0122639
-0.0135233
-0.0145199
-0.0151128
-0.0150389
-0.00134103
-0.00151294
-0.00175007
-0.00172172
-0.0020792
-0.00295424
-0.00342337
-0.00357077
-0.00428668
-0.00558294
-0.00676571
-0.00758703
-0.0083808
-0.00946758
-0.0108333
-0.0122605
-0.0135463
-0.014556
-0.0151447
-0.0150584
-0.00140463
-0.00155542
-0.0018182
-0.00183651
-0.00214021
-0.00299065
-0.00356208
-0.00372863
-0.00431143
-0.00552264
-0.00676251
-0.00766873
-0.00846122
-0.00948042
-0.0107917
-0.0122107
-0.0135142
-0.0145393
-0.0151289
-0.0150349
-0.00147691
-0.00160713
-0.00189018
-0.00196602
-0.0022268
-0.00302815
-0.00368505
-0.00390329
-0.00437491
-0.00546543
-0.00671954
-0.00770524
-0.00852013
-0.00948429
-0.0107268
-0.0121145
-0.0134223
-0.0144605
-0.0150552
-0.0149585
-0.00155874
-0.00167074
-0.00196662
-0.00210638
-0.00234115
-0.00307578
-0.00379069
-0.00408392
-0.00447717
-0.00542725
-0.00664942
-0.00769388
-0.00854247
-0.00946616
-0.010634
-0.0119702
-0.0132649
-0.0143098
-0.0149124
-0.0148194
-0.00165054
-0.00174837
-0.00205007
-0.00225358
-0.00248209
-0.00314284
-0.00388429
-0.00426062
-0.0046118
-0.00542009
-0.0065666
-0.00763673
-0.00851752
-0.00941173
-0.010504
-0.0117721
-0.0130345
-0.0140754
-0.0146859
-0.0146023
-0.00175264
-0.00184127
-0.00214392
-0.00240506
-0.00264593
-0.00323688
-0.00397547
-0.00442763
-0.00476888
-0.00545076
-0.00648749
-0.00754156
-0.00843954
-0.00930761
-0.0103242
-0.0115093
-0.012719
-0.0137419
-0.0143556
-0.0142848
-0.00186557
-0.00195041
-0.00225131
-0.00256063
-0.00282809
-0.00336136
-0.00407572
-0.00458605
-0.00494006
-0.00551978
-0.00642858
-0.00742359
-0.00830997
-0.00914348
-0.0100792
-0.0111659
-0.0123001
-0.0132863
-0.0138924
-0.0138353
-0.00199021
-0.00207599
-0.00237448
-0.00272191
-0.00302466
-0.00351633
-0.00419481
-0.00474316
-0.00512126
-0.00562388
-0.00640294
-0.00730347
-0.00814013
-0.00891599
-0.00975364
-0.0107202
-0.0117496
-0.012672
-0.0132526
-0.013206
-0.00212716
-0.0022181
-0.00251498
-0.00289103
-0.00323316
-0.00370057
-0.0043399
-0.00490855
-0.00531327
-0.00576121
-0.00641868
-0.00720215
-0.00795156
-0.00863391
-0.00934036
-0.0101483
-0.0110268
-0.0118384
-0.0123612
-0.0123144
-0.00227698
-0.00237636
-0.00267368
-0.00307063
-0.00345174
-0.00391168
-0.00451603
-0.00509139
-0.00552158
-0.00593362
-0.00648148
-0.00713671
-0.00776796
-0.00832007
-0.00884962
-0.00943503
-0.0100845
-0.0107031
-0.0111104
-0.0110335
-0.00244024
-0.00255032
-0.00285006
-0.00326281
-0.00368016
-0.0041463
-0.00472517
-0.00530014
-0.00575333
-0.00614499
-0.0066
-0.00712129
-0.00760979
-0.00799746
-0.00830595
-0.00859536
-0.00889949
-0.00918472
-0.00932654
-0.00913306
-0.0026169
-0.00273941
-0.00304315
-0.00346874
-0.0039187
-0.00440103
-0.00496624
-0.00554023
-0.00601335
-0.00639843
-0.00677984
-0.00717078
-0.00749783
-0.00768789
-0.0077309
-0.00765406
-0.00748725
-0.00724006
-0.00690899
-0.00644134
-0.00280663
-0.00294221
-0.00325205
-0.00368846
-0.00416708
-0.00467212
-0.00523558
-0.00581076
-0.0063012
-0.00668768
-0.00701183
-0.00728016
-0.00742747
-0.00737851
-0.00710518
-0.00661103
-0.00586996
-0.00488872
-0.00381866
-0.00287624
-0.00300869
-0.00315699
-0.00347507
-0.00392108
-0.0044241
-0.00495451
-0.00552612
-0.00610376
-0.00660587
-0.00698782
-0.00725431
-0.00738675
-0.00731136
-0.00692762
-0.00613266
-0.00496521
-0.00356137
-0.00211237
-0.000831586
5.29095e-06
-0.00322183
-0.00338165
-0.00370953
-0.0041648
-0.00468742
-0.00524187
-0.00582528
-0.00640403
-0.00690111
-0.00725205
-0.00742017
-0.0073465
-0.00691964
-0.00604711
-0.00476534
-0.00320354
-0.0015411
6.13565e-06
0.00121372
0.00181558
-0.00344348
-0.00361386
-0.00395212
-0.00441631
-0.00495318
-0.00552549
-0.00611703
-0.00668663
-0.00714984
-0.00741915
-0.00741638
-0.00705024
-0.00625961
-0.00505876
-0.00352874
-0.00181256
-9.97801e-05
0.00143551
0.0025711
0.00301891
-0.00367026
-0.00385076
-0.00419883
-0.00467058
-0.00521585
-0.00579536
-0.00638224
-0.00692143
-0.00731479
-0.00744905
-0.00722435
-0.00659804
-0.00557197
-0.00418707
-0.0025334
-0.000757884
0.000981377
0.00249686
0.00356484
0.00390048
-0.00389813
-0.00408779
-0.00444438
-0.00492155
-0.00546874
-0.00604221
-0.0066028
-0.00708391
-0.00737282
-0.00734924
-0.00694294
-0.00613945
-0.00496303
-0.00346706
-0.00175017
6.13805e-05
0.00180661
0.0032957
0.00430552
0.00455461
-0.00412235
-0.00431933
-0.00468148
-0.00516028
-0.00570338
-0.00625775
-0.00676496
-0.00715566
-0.00732715
-0.00717854
-0.00665149
-0.00573326
-0.00445831
-0.00289344
-0.00113644
0.000686666
0.00242215
0.00388343
0.00484854
0.00503489
-0.00433725
-0.00454043
-0.00490228
-0.00537578
-0.00590834
-0.00643516
-0.00687715
-0.00715625
-0.0072116
-0.00696545
-0.00636346
-0.00538897
-0.00406335
-0.0024627
-0.000688147
0.00113302
0.00284873
0.0042824
0.00521172
0.00535629
-0.00453573
-0.00474435
-0.00510158
-0.0055603
-0.00607189
-0.00656526
-0.0069544
-0.00715073
-0.00708993
-0.00673665
-0.00606671
-0.00505903
-0.00374002
-0.00216299
-0.000416817
0.00137891
0.0030724
0.0044793
0.00537856
0.00549571
-0.00470843
-0.00492288
-0.00527435
-0.00571036
-0.00618639
-0.00663501
-0.00698656
-0.00715792
-0.00705161
-0.00661061
-0.00581186
-0.00469657
-0.00332301
-0.0017614
-9.07076e-05
0.00160007
0.00319324
0.00450929
0.00533439
0.0053918
-0.00484621
-0.00506659
-0.005414
-0.00583558
-0.00627319
-0.00665486
-0.00693637
-0.00707439
-0.00700876
-0.00664566
-0.00591629
-0.00480177
-0.00334234
-0.00163162
0.000210778
0.00205252
0.00374624
0.00514075
0.00602364
0.0061051
-0.00493914
-0.00516339
-0.00551357
-0.00593847
-0.00637156
-0.00673527
-0.00694637
-0.00694013
-0.00669794
-0.00621025
-0.00546263
-0.00445113
-0.00320073
-0.00175054
-0.000152734
0.00151226
0.00310875
0.00444878
0.00529766
0.00534979
0.00678537
0.0017106
-0.00567847
-0.0107383
-0.0116941
-0.0104008
-0.00888015
-0.00780868
-0.00717667
-0.00682798
-0.00664299
-0.00656532
-0.00656833
-0.00662373
-0.00670205
-0.00678441
-0.00686247
-0.00693217
-0.00699178
-0.00704302
-0.00709024
-0.00713796
-0.00718843
-0.00724135
-0.00729649
-0.00735611
-0.00742336
-0.00749943
-0.00758278
-0.0076709
-0.00776153
-0.00785284
-0.00794337
-0.00803212
-0.00811826
-0.00820094
-0.00827949
-0.00835453
-0.00842792
-0.0085016
-0.00857606
-0.00865064
-0.00872464
-0.00879787
-0.00887
-0.00894052
-0.00900887
-0.00907524
-0.00914024
-0.00920458
-0.00926848
-0.00933201
-0.00939514
-0.00945831
-0.00952198
-0.00958646
-0.00965143
-0.00971646
-0.00978107
-0.00984519
-0.00990908
-0.00997337
-0.0100385
-0.0101043
-0.0101702
-0.0102357
-0.0103005
-0.0103647
-0.0104286
-0.0104924
-0.0105565
-0.0106211
-0.0106863
-0.0107513
-0.0108153
-0.0108781
-0.0109406
-0.0110036
-0.011068
-0.0111325
-0.0111962
-0.0112582
-0.0113192
-0.0113801
-0.0114417
-0.0115035
-0.0115647
-0.0116238
-0.0116812
-0.011738
-0.0117954
-0.0118529
-0.0119091
-0.0119632
-0.012016
-0.0120688
-0.0121221
-0.0121747
-0.0122255
-0.0122752
-0.0123246
-0.0123746
-0.0124238
-0.0124719
-0.012519
-0.0125662
-0.0126133
-0.0126599
-0.0127057
-0.0127511
-0.0127963
-0.0128412
-0.0128856
-0.0129296
-0.0129735
-0.0130172
-0.0130605
-0.0131035
-0.0131464
-0.0131891
-0.0132316
-0.0132738
-0.0133158
-0.0133576
-0.0133991
-0.0134406
-0.0134819
-0.013523
-0.0135642
-0.0136054
-0.0136467
-0.013688
-0.0137298
-0.0137714
-0.0138137
-0.0138559
-0.0138986
-0.0139415
-0.0139847
-0.0140283
-0.014072
-0.0141162
-0.0141604
-0.0142053
-0.0142501
-0.0142953
-0.0143408
-0.0143864
-0.0144327
-0.0144788
-0.0145258
-0.0145727
-0.0146202
-0.0146681
-0.014716
-0.014765
-0.0148131
-0.0148631
-0.0149118
-0.0149624
-0.0150121
-0.015063
-0.0151141
-0.0151654
-0.015218
-0.01527
-0.0153237
-0.0153769
-0.0154315
-0.0154861
-0.0155415
-0.0155974
-0.0156538
-0.0157107
-0.0157683
-0.0158263
-0.0158848
-0.0159439
-0.0160036
-0.0160637
-0.0161246
-0.0161856
-0.0162477
-0.0163098
-0.0163729
-0.0164364
-0.0165002
-0.0165652
-0.0166298
-0.0166959
-0.0167615
-0.0168287
-0.0168957
-0.0169636
-0.0170312
-0.017102
-0.0171666
-0.0172364
-0.017298
-0.0173411
0.00605965
0.00153996
-0.00559631
-0.0106064
-0.0116173
-0.0103642
-0.00885715
-0.00779241
-0.00716485
-0.00681892
-0.0066356
-0.00655901
-0.00656279
-0.0066188
-0.00669761
-0.00678037
-0.00685879
-0.0069288
-0.00698868
-0.00704015
-0.00708758
-0.00713548
-0.00718612
-0.0072392
-0.00729449
-0.00735423
-0.0074216
-0.00749778
-0.00758123
-0.00766943
-0.00776014
-0.00785152
-0.00794211
-0.00803092
-0.00811711
-0.00819984
-0.00827845
-0.00835354
-0.00842698
-0.00850072
-0.00857522
-0.00864984
-0.00872387
-0.00879713
-0.0088693
-0.00893985
-0.00900823
-0.00907462
-0.00913964
-0.009204
-0.00926792
-0.00933147
-0.00939463
-0.00945781
-0.0095215
-0.009586
-0.00965098
-0.00971602
-0.00978064
-0.00984478
-0.00990868
-0.00997298
-0.0100381
-0.0101039
-0.0101698
-0.0102353
-0.0103001
-0.0103644
-0.0104283
-0.0104921
-0.0105562
-0.0106208
-0.010686
-0.010751
-0.0108151
-0.0108779
-0.0109403
-0.0110034
-0.0110678
-0.0111323
-0.011196
-0.011258
-0.011319
-0.0113799
-0.0114415
-0.0115034
-0.0115645
-0.0116237
-0.0116811
-0.0117379
-0.0117953
-0.0118527
-0.011909
-0.0119631
-0.0120159
-0.0120687
-0.012122
-0.0121746
-0.0122254
-0.0122751
-0.0123246
-0.0123745
-0.0124237
-0.0124718
-0.0125189
-0.0125662
-0.0126133
-0.0126599
-0.0127056
-0.012751
-0.0127963
-0.0128412
-0.0128856
-0.0129296
-0.0129735
-0.0130171
-0.0130605
-0.0131035
-0.0131464
-0.0131891
-0.0132316
-0.0132738
-0.0133158
-0.0133576
-0.0133991
-0.0134406
-0.0134818
-0.013523
-0.0135642
-0.0136053
-0.0136467
-0.013688
-0.0137298
-0.0137714
-0.0138137
-0.0138559
-0.0138986
-0.0139415
-0.0139847
-0.0140283
-0.014072
-0.0141162
-0.0141604
-0.0142052
-0.0142501
-0.0142953
-0.0143408
-0.0143864
-0.0144327
-0.0144788
-0.0145258
-0.0145727
-0.0146202
-0.0146681
-0.014716
-0.014765
-0.0148131
-0.0148631
-0.0149118
-0.0149624
-0.0150121
-0.015063
-0.0151141
-0.0151654
-0.015218
-0.01527
-0.0153237
-0.0153769
-0.0154315
-0.0154861
-0.0155415
-0.0155974
-0.0156538
-0.0157107
-0.0157683
-0.0158263
-0.0158848
-0.0159439
-0.0160036
-0.0160637
-0.0161246
-0.0161856
-0.0162477
-0.0163098
-0.0163729
-0.0164364
-0.0165002
-0.0165652
-0.0166298
-0.0166959
-0.0167615
-0.0168287
-0.0168957
-0.0169636
-0.0170312
-0.017102
-0.0171666
-0.0172364
-0.017298
-0.0173411
0.00529628
0.00137186
-0.005416
-0.0103548
-0.0114766
-0.0103078
-0.00882634
-0.00776918
-0.00714688
-0.00680522
-0.00662505
-0.00655069
-0.00655601
-0.00661308
-0.00669263
-0.00677594
-0.0068548
-0.00692518
-0.00698538
-0.00703712
-0.00708478
-0.00713288
-0.0071837
-0.00723695
-0.00729239
-0.00735228
-0.00741978
-0.00749608
-0.00757965
-0.00766795
-0.00775875
-0.00785021
-0.00794087
-0.00802974
-0.00811598
-0.00819876
-0.00827742
-0.00835256
-0.00842604
-0.00849983
-0.00857438
-0.00864905
-0.00872311
-0.00879641
-0.00886861
-0.00893919
-0.00900759
-0.00907401
-0.00913905
-0.00920344
-0.00926738
-0.00933095
-0.00939413
-0.00945733
-0.00952103
-0.00958554
-0.00965054
-0.0097156
-0.00978023
-0.00984438
-0.00990829
-0.00997261
-0.0100377
-0.0101036
-0.0101695
-0.010235
-0.0102998
-0.0103641
-0.010428
-0.0104919
-0.0105559
-0.0106205
-0.0106857
-0.0107507
-0.0108148
-0.0108776
-0.0109401
-0.0110032
-0.0110675
-0.0111321
-0.0111958
-0.0112578
-0.0113189
-0.0113797
-0.0114414
-0.0115032
-0.0115644
-0.0116235
-0.011681
-0.0117377
-0.0117951
-0.0118526
-0.0119089
-0.011963
-0.0120158
-0.0120687
-0.0121219
-0.0121745
-0.0122254
-0.0122751
-0.0123245
-0.0123744
-0.0124236
-0.0124718
-0.0125189
-0.0125661
-0.0126132
-0.0126598
-0.0127056
-0.012751
-0.0127963
-0.0128412
-0.0128856
-0.0129296
-0.0129735
-0.0130171
-0.0130605
-0.0131035
-0.0131464
-0.0131891
-0.0132316
-0.0132738
-0.0133157
-0.0133576
-0.0133991
-0.0134406
-0.0134818
-0.013523
-0.0135642
-0.0136053
-0.0136467
-0.013688
-0.0137298
-0.0137714
-0.0138137
-0.0138559
-0.0138986
-0.0139415
-0.0139847
-0.0140283
-0.014072
-0.0141162
-0.0141604
-0.0142052
-0.0142501
-0.0142953
-0.0143408
-0.0143864
-0.0144327
-0.0144788
-0.0145258
-0.0145727
-0.0146202
-0.0146681
-0.014716
-0.014765
-0.0148131
-0.0148631
-0.0149118
-0.0149624
-0.0150121
-0.015063
-0.0151141
-0.0151654
-0.015218
-0.01527
-0.0153237
-0.0153769
-0.0154315
-0.0154861
-0.0155415
-0.0155974
-0.0156538
-0.0157107
-0.0157683
-0.0158263
-0.0158848
-0.0159439
-0.0160036
-0.0160637
-0.0161246
-0.0161856
-0.0162477
-0.0163098
-0.0163729
-0.0164364
-0.0165002
-0.0165652
-0.0166298
-0.0166959
-0.0167615
-0.0168287
-0.0168957
-0.0169636
-0.0170312
-0.017102
-0.0171666
-0.0172364
-0.017298
-0.0173411
0.00456797
0.00122386
-0.00516492
-0.0100186
-0.0112782
-0.0102262
-0.00878163
-0.00773394
-0.00711878
-0.00678397
-0.00660927
-0.00653889
-0.00654693
-0.00660574
-0.00668639
-0.00677046
-0.00684989
-0.00692075
-0.00698138
-0.00703351
-0.00708149
-0.00712985
-0.00718086
-0.00723429
-0.00728992
-0.00735
-0.00741769
-0.00749416
-0.00757788
-0.00766632
-0.00775725
-0.00784882
-0.00793956
-0.00802849
-0.00811478
-0.00819759
-0.00827629
-0.00835147
-0.00842501
-0.00849886
-0.00857347
-0.00864819
-0.00872231
-0.00879565
-0.00886788
-0.00893849
-0.00900692
-0.00907337
-0.00913844
-0.00920285
-0.00926681
-0.00933041
-0.00939361
-0.00945683
-0.00952056
-0.00958509
-0.00965009
-0.00971516
-0.00977981
-0.00984396
-0.0099079
-0.00997223
-0.0100373
-0.0101032
-0.0101692
-0.0102346
-0.0102995
-0.0103637
-0.0104277
-0.0104916
-0.0105556
-0.0106203
-0.0106855
-0.0107505
-0.0108146
-0.0108774
-0.0109398
-0.011003
-0.0110673
-0.0111319
-0.0111956
-0.0112576
-0.0113187
-0.0113795
-0.0114412
-0.011503
-0.0115642
-0.0116234
-0.0116808
-0.0117376
-0.011795
-0.0118525
-0.0119088
-0.0119629
-0.0120157
-0.0120686
-0.0121218
-0.0121744
-0.0122253
-0.012275
-0.0123244
-0.0123744
-0.0124236
-0.0124717
-0.0125188
-0.0125661
-0.0126132
-0.0126598
-0.0127055
-0.012751
-0.0127962
-0.0128411
-0.0128855
-0.0129295
-0.0129735
-0.0130171
-0.0130604
-0.0131034
-0.0131463
-0.0131891
-0.0132315
-0.0132738
-0.0133157
-0.0133575
-0.0133991
-0.0134406
-0.0134818
-0.013523
-0.0135642
-0.0136053
-0.0136467
-0.013688
-0.0137297
-0.0137714
-0.0138137
-0.0138559
-0.0138986
-0.0139415
-0.0139847
-0.0140283
-0.014072
-0.0141162
-0.0141604
-0.0142052
-0.0142501
-0.0142953
-0.0143408
-0.0143864
-0.0144327
-0.0144788
-0.0145258
-0.0145727
-0.0146202
-0.0146681
-0.014716
-0.014765
-0.0148131
-0.0148631
-0.0149118
-0.0149624
-0.0150121
-0.015063
-0.0151141
-0.0151654
-0.015218
-0.01527
-0.0153237
-0.0153769
-0.0154315
-0.0154861
-0.0155415
-0.0155974
-0.0156538
-0.0157107
-0.0157683
-0.0158263
-0.0158848
-0.0159439
-0.0160036
-0.0160637
-0.0161246
-0.0161856
-0.0162477
-0.0163098
-0.0163729
-0.0164364
-0.0165002
-0.0165652
-0.0166298
-0.0166959
-0.0167615
-0.0168287
-0.0168957
-0.0169636
-0.0170312
-0.017102
-0.0171666
-0.0172364
-0.017298
-0.0173411
0.00386572
0.00106285
-0.0048947
-0.00965015
-0.0110533
-0.0101324
-0.00872958
-0.00768979
-0.00708122
-0.00675456
-0.0065872
-0.00652244
-0.00653439
-0.00659574
-0.006678
-0.00676314
-0.00684335
-0.00691484
-0.00697605
-0.00702873
-0.00707719
-0.0071259
-0.00717716
-0.0072308
-0.00728667
-0.00734702
-0.00741499
-0.00749171
-0.00757565
-0.00766428
-0.0077554
-0.00784714
-0.00793801
-0.00802702
-0.00811334
-0.00819617
-0.00827489
-0.00835012
-0.00842373
-0.00849765
-0.00857235
-0.00864715
-0.00872135
-0.00879475
-0.00886703
-0.00893767
-0.00900613
-0.00907261
-0.00913771
-0.00920215
-0.00926614
-0.00932977
-0.00939301
-0.00945627
-0.00952002
-0.00958458
-0.0096496
-0.00971467
-0.00977932
-0.0098435
-0.00990745
-0.0099718
-0.0100369
-0.0101028
-0.0101688
-0.0102343
-0.0102991
-0.0103634
-0.0104274
-0.0104912
-0.0105553
-0.01062
-0.0106851
-0.0107502
-0.0108143
-0.0108771
-0.0109396
-0.0110027
-0.0110671
-0.0111316
-0.0111954
-0.0112574
-0.0113184
-0.0113793
-0.011441
-0.0115028
-0.011564
-0.0116232
-0.0116806
-0.0117374
-0.0117948
-0.0118524
-0.0119086
-0.0119627
-0.0120155
-0.0120684
-0.0121217
-0.0121743
-0.0122252
-0.0122749
-0.0123243
-0.0123743
-0.0124235
-0.0124716
-0.0125187
-0.012566
-0.0126131
-0.0126597
-0.0127055
-0.0127509
-0.0127962
-0.0128411
-0.0128855
-0.0129295