/*--------------------------------*- C++ -*----------------------------------*\
| =========                 |                                                 |
| \\      /  F ield         | OpenFOAM: The Open Source CFD Toolbox           |
|  \\    /   O peration     | Version:  v2012                                 |
|   \\  /    A nd           | Website:  www.openfoam.com                      |
|    \\/     M anipulation  |                                                 |
\*---------------------------------------------------------------------------*/
FoamFile
{
    version     2.0;
    format      ascii;
    class       surfaceScalarField;
    location    "0.85";
    object      phi;
}
// * * * * * * * * * * * * * * * * * * * * * * * * * * * * * * * * * * * * * //

dimensions      [0 3 -1 0 0 0 0];
oriented        oriented;


internalField   nonuniform List<scalar> 
34900
(
1.17618e-06
3.58662e-07
1.15442e-06
-3.61336e-07
1.16305e-06
1.03867e-07
1.15542e-06
-4.13394e-08
1.15821e-06
-7.67864e-08
1.1565e-06
-7.73366e-08
1.16385e-06
2.23044e-07
1.15497e-06
-1.10204e-07
1.16288e-06
2.94373e-07
1.14748e-06
-1.80897e-07
1.15771e-06
2.68457e-07
1.13997e-06
-1.20782e-07
1.15003e-06
1.64267e-07
1.13224e-06
-6.859e-08
1.14271e-06
1.03863e-07
1.12399e-06
-2.97201e-08
1.13451e-06
6.84907e-08
1.11568e-06
2.70163e-09
1.12131e-06
6.66842e-08
1.82196e-08
1.08125e-06
1.22871e-06
3.54218e-07
1.20788e-06
-3.40508e-07
1.21454e-06
9.72056e-08
1.21012e-06
-3.69157e-08
1.21166e-06
-7.83273e-08
1.212e-06
-7.76773e-08
1.21638e-06
2.1866e-07
1.2105e-06
-1.04319e-07
1.21374e-06
2.91133e-07
1.20302e-06
-1.70182e-07
1.20619e-06
2.6529e-07
1.19677e-06
-1.1137e-07
1.19705e-06
1.63992e-07
1.19214e-06
-6.36838e-08
1.18855e-06
1.07457e-07
1.18866e-06
-2.98309e-08
1.17829e-06
7.88622e-08
1.1858e-06
-4.80977e-09
1.1617e-06
9.07871e-08
1.44309e-08
1.16549e-06
1.28314e-06
3.53866e-07
1.26502e-06
-3.22398e-07
1.2675e-06
9.47262e-08
1.26836e-06
-3.77755e-08
1.26661e-06
-7.65694e-08
1.27046e-06
-8.15297e-08
1.27086e-06
2.18262e-07
1.26967e-06
-1.03133e-07
1.26841e-06
2.92391e-07
1.26316e-06
-1.64926e-07
1.26073e-06
2.67717e-07
1.25878e-06
-1.09423e-07
1.25327e-06
1.695e-07
1.25533e-06
-6.57381e-08
1.24775e-06
1.15032e-07
1.2517e-06
-3.37791e-08
1.24231e-06
8.82594e-08
1.24583e-06
-8.33884e-09
1.234e-06
1.0262e-07
2.7369e-08
1.22106e-06
1.34074e-06
3.5723e-07
1.32724e-06
-3.08901e-07
1.32435e-06
9.76135e-08
1.33077e-06
-4.4191e-08
1.32526e-06
-7.10556e-08
1.33136e-06
-8.76373e-08
1.3294e-06
2.2023e-07
1.33169e-06
-1.05429e-07
1.32923e-06
2.94853e-07
1.3272e-06
-1.62898e-07
1.324e-06
2.70924e-07
1.32452e-06
-1.09943e-07
1.32008e-06
1.7394e-07
1.32149e-06
-6.71466e-08
1.31763e-06
1.18886e-07
1.31786e-06
-3.40071e-08
1.31441e-06
9.17104e-08
1.31185e-06
-5.78268e-09
1.3071e-06
1.07374e-07
4.45068e-08
1.28996e-06
1.40266e-06
3.62923e-07
1.3942e-06
-3.0044e-07
1.38697e-06
1.0484e-07
1.39689e-06
-5.41118e-08
1.38923e-06
-6.33954e-08
1.39494e-06
-9.33405e-08
1.39335e-06
2.21822e-07
1.39652e-06
-1.08601e-07
1.3961e-06
2.95275e-07
1.39457e-06
-1.61374e-07
1.3938e-06
2.71695e-07
1.3935e-06
-1.09647e-07
1.39243e-06
1.75018e-07
1.39138e-06
-6.6104e-08
1.39091e-06
1.1936e-07
1.38842e-06
-3.1518e-08
1.38757e-06
9.25616e-08
1.38248e-06
-6.98403e-10
1.37978e-06
1.1008e-07
6.19154e-08
1.36237e-06
1.46964e-06
3.68959e-07
1.46513e-06
-2.95926e-07
1.45608e-06
1.13885e-07
1.46649e-06
-6.45199e-08
1.45892e-06
-5.58257e-08
1.46224e-06
-9.66634e-08
1.4626e-06
2.21464e-07
1.46492e-06
-1.10924e-07
1.46738e-06
2.92815e-07
1.46528e-06
-1.59273e-07
1.46712e-06
2.69853e-07
1.46549e-06
-1.08016e-07
1.4669e-06
1.73616e-07
1.46422e-06
-6.34272e-08
1.46547e-06
1.18105e-07
1.46159e-06
-2.76311e-08
1.46196e-06
9.2184e-08
1.45525e-06
6.0195e-09
1.45405e-06
1.11279e-07
7.94413e-08
1.43652e-06
1.54167e-06
3.73503e-07
1.53938e-06
-2.93637e-07
1.53101e-06
1.22255e-07
1.53965e-06
-7.31542e-08
1.53345e-06
-4.96294e-08
1.53407e-06
-9.72847e-08
1.53619e-06
2.19345e-07
1.53731e-06
-1.12044e-07
1.54179e-06
2.88337e-07
1.53915e-06
-1.56635e-07
1.54277e-06
2.66232e-07
1.54016e-06
-1.05402e-07
1.5431e-06
1.70669e-07
1.53941e-06
-5.97356e-08
1.54186e-06
1.15657e-07
1.53688e-06
-2.26516e-08
1.53842e-06
9.06444e-08
1.53018e-06
1.42617e-08
1.53034e-06
1.11118e-07
9.66566e-08
1.51312e-06
1.61807e-06
3.7556e-07
1.61656e-06
-2.92129e-07
1.61025e-06
1.28567e-07
1.61634e-06
-7.92425e-08
1.61156e-06
-4.48507e-08
1.61033e-06
-9.60563e-08
1.61329e-06
2.16385e-07
1.61349e-06
-1.12246e-07
1.61896e-06
2.8287e-07
1.61597e-06
-1.53647e-07
1.62083e-06
2.61377e-07
1.61745e-06
-1.02026e-07
1.6216e-06
1.66521e-07
1.61706e-06
-5.51927e-08
1.62068e-06
1.12041e-07
1.61463e-06
-1.6608e-08
1.61735e-06
8.79225e-08
1.6078e-06
2.38201e-08
1.60894e-06
1.09977e-07
1.12922e-07
1.59267e-06
1.69801e-06
3.75128e-07
1.69648e-06
-2.90603e-07
1.69243e-06
1.3262e-07
1.69631e-06
-8.31269e-08
1.69244e-06
-4.09774e-08
1.69042e-06
-9.40422e-08
1.69357e-06
2.13236e-07
1.69316e-06
-1.11834e-07
1.69906e-06
2.76974e-07
1.69574e-06
-1.5033e-07
1.70164e-06
2.55476e-07
1.69753e-06
-9.79199e-08
1.70284e-06
1.61218e-07
1.69743e-06
-4.9788e-08
1.70226e-06
1.0721e-07
1.69518e-06
-9.52601e-09
1.699e-06
8.41073e-08
1.68845e-06
3.43687e-08
1.69008e-06
1.08341e-07
1.27636e-07
1.67537e-06
1.78103e-06
3.72818e-07
1.7792e-06
-2.88769e-07
1.77697e-06
1.34845e-07
1.77936e-06
-8.55157e-08
1.77596e-06
-3.75767e-08
1.77387e-06
-9.19546e-08
1.77705e-06
2.1006e-07
1.77619e-06
-1.10979e-07
1.78236e-06
2.70807e-07
1.77862e-06
-1.46587e-07
1.78552e-06
2.4857e-07
1.78063e-06
-9.30299e-08
1.78712e-06
1.54735e-07
1.7808e-06
-4.3471e-08
1.78686e-06
1.01154e-07
1.77881e-06
-1.47482e-09
1.7835e-06
7.94126e-08
1.77239e-06
4.54758e-08
1.77397e-06
1.06764e-07
1.40293e-07
1.76131e-06
1.86723e-06
3.69332e-07
1.86503e-06
-2.86567e-07
1.8641e-06
1.35782e-07
1.86557e-06
-8.69886e-08
1.86246e-06
-3.447e-08
1.8606e-06
-9.00889e-08
1.86391e-06
2.06746e-07
1.86269e-06
-1.09755e-07
1.86916e-06
2.6433e-07
1.86488e-06
-1.42301e-07
1.87279e-06
2.4066e-07
1.86703e-06
-8.72752e-08
1.87472e-06
1.47048e-07
1.86745e-06
-3.62028e-08
1.87467e-06
9.3935e-08
1.86579e-06
7.40083e-09
1.87102e-06
7.41854e-08
1.85987e-06
5.66257e-08
1.86081e-06
1.05823e-07
1.5053e-07
1.85057e-06
1.957e-06
3.65171e-07
1.95443e-06
-2.83996e-07
1.95437e-06
1.35844e-07
1.95525e-06
-8.78685e-08
1.95242e-06
-3.16409e-08
1.95079e-06
-8.84635e-08
1.95441e-06
2.03127e-07
1.95284e-06
-1.08177e-07
1.95974e-06
2.57429e-07
1.9548e-06
-1.37361e-07
1.96372e-06
2.31732e-07
1.95703e-06
-8.05805e-08
1.96591e-06
1.38166e-07
1.9577e-06
-2.7988e-08
1.96592e-06
8.57141e-08
1.95647e-06
1.6849e-08
1.96176e-06
6.88905e-08
1.95112e-06
6.72709e-08
1.95092e-06
1.06018e-07
1.58205e-07
1.94325e-06
2.05077e-06
3.60587e-07
2.04783e-06
-2.81054e-07
2.04839e-06
1.35285e-07
2.04881e-06
-8.82864e-08
2.04629e-06
-2.91274e-08
2.04479e-06
-8.69598e-08
2.04885e-06
1.99069e-07
2.04689e-06
-1.06218e-07
2.05434e-06
2.49974e-07
2.04866e-06
-1.31675e-07
2.05863e-06
2.21759e-07
2.05095e-06
-7.28967e-08
2.06098e-06
1.28133e-07
2.05189e-06
-1.89032e-08
2.06085e-06
7.67561e-08
2.0512e-06
2.65061e-08
2.05602e-06
6.40644e-08
2.04639e-06
7.69067e-08
2.04476e-06
1.07648e-07
1.63458e-07
2.0395e-06
2.14891e-06
3.55677e-07
2.14559e-06
-2.7773e-07
2.14663e-06
1.34238e-07
2.14662e-06
-8.82706e-08
2.14447e-06
-2.69789e-08
2.14292e-06
-8.54113e-08
2.14751e-06
1.9448e-07
2.14511e-06
-1.03819e-07
2.15325e-06
2.4184e-07
2.14674e-06
-1.2517e-07
2.15779e-06
2.10713e-07
2.14911e-06
-6.42176e-08
2.1602e-06
1.17041e-07
2.15041e-06
-9.11772e-09
2.15975e-06
6.74227e-08
2.15033e-06
3.59229e-08
2.15415e-06
6.02494e-08
2.14592e-06
8.51361e-08
2.14279e-06
1.1077e-07
1.66673e-07
2.13958e-06
2.2517e-06
3.50462e-07
2.24798e-06
-2.74007e-07
2.24947e-06
1.32748e-07
2.249e-06
-8.78027e-08
2.24728e-06
-2.52518e-08
2.24552e-06
-8.36516e-08
2.25071e-06
1.89282e-07
2.24779e-06
-1.00899e-07
2.25672e-06
2.32915e-07
2.24934e-06
-1.17789e-07
2.26147e-06
1.98576e-07
2.25185e-06
-5.45927e-08
2.26384e-06
1.05048e-07
2.25363e-06
1.09478e-09
2.2629e-06
5.81531e-08
2.2542e-06
4.46193e-08
2.25654e-06
5.79133e-08
2.24995e-06
9.17218e-08
2.2455e-06
1.15225e-07
1.68389e-07
2.24378e-06
2.3594e-06
3.44936e-07
2.35525e-06
-2.69857e-07
2.35719e-06
1.30811e-07
2.35623e-06
-8.684e-08
2.35499e-06
-2.40132e-08
2.35287e-06
-8.15316e-08
2.35875e-06
1.83404e-07
2.35522e-06
-9.73721e-08
2.36503e-06
2.23104e-07
2.35674e-06
-1.09501e-07
2.36996e-06
1.85363e-07
2.35951e-06
-4.41429e-08
2.37216e-06
9.23904e-08
2.3619e-06
1.13529e-08
2.37062e-06
4.94395e-08
2.36309e-06
5.21473e-08
2.36363e-06
5.73691e-08
2.35871e-06
9.66418e-08
2.35329e-06
1.20652e-07
1.6921e-07
2.35247e-06
2.47224e-06
3.39089e-07
2.46763e-06
-2.65244e-07
2.47006e-06
1.28384e-07
2.46854e-06
-8.53246e-08
2.46787e-06
-2.33426e-08
2.46526e-06
-7.89205e-08
2.47189e-06
1.76772e-07
2.46768e-06
-9.31563e-08
2.47844e-06
2.12338e-07
2.46926e-06
-1.00315e-07
2.48348e-06
1.71143e-07
2.47241e-06
-3.30766e-08
2.4854e-06
7.94031e-08
2.47556e-06
2.11864e-08
2.48322e-06
4.17805e-08
2.47721e-06
5.81544e-08
2.47586e-06
5.87206e-08
2.4724e-06
1.00109e-07
2.46651e-06
1.26539e-07
1.69721e-07
2.466e-06
2.59048e-06
3.32906e-07
2.58535e-06
-2.6012e-07
2.58833e-06
1.25407e-07
2.58619e-06
-8.31863e-08
2.58618e-06
-2.33312e-08
2.58296e-06
-7.57023e-08
2.59042e-06
1.69313e-07
2.58545e-06
-8.81861e-08
2.59721e-06
2.00582e-07
2.58718e-06
-9.0291e-08
2.60226e-06
1.56063e-07
2.59089e-06
-2.16996e-08
2.60379e-06
6.6499e-08
2.59488e-06
3.0095e-08
2.60105e-06
3.56119e-08
2.59677e-06
6.24383e-08
2.59366e-06
6.18313e-08
2.59123e-06
1.02538e-07
2.58544e-06
1.32321e-07
1.70404e-07
2.58476e-06
2.71437e-06
3.26368e-07
2.70867e-06
-2.54428e-07
2.71228e-06
1.21804e-07
2.70944e-06
-8.03446e-08
2.71018e-06
-2.40773e-08
2.70626e-06
-7.17755e-08
2.7146e-06
1.60964e-07
2.70884e-06
-8.2427e-08
2.72157e-06
1.87858e-07
2.71084e-06
-7.95656e-08
2.72654e-06
1.40362e-07
2.71526e-06
-1.04118e-08
2.72761e-06
5.41404e-08
2.7201e-06
3.76114e-08
2.72447e-06
3.12375e-08
2.72192e-06
6.49922e-08
2.7174e-06
6.63479e-08
2.71549e-06
1.04445e-07
2.7103e-06
1.37519e-07
1.71554e-07
2.70915e-06
2.84418e-06
3.19459e-07
2.83785e-06
-2.48102e-07
2.84217e-06
1.17486e-07
2.83854e-06
-7.67123e-08
2.84014e-06
-2.56799e-08
2.83542e-06
-6.70582e-08
2.8447e-06
1.5169e-07
2.83816e-06
-7.58917e-08
2.85177e-06
1.74255e-07
2.84057e-06
-6.83653e-08
2.85655e-06
1.24375e-07
2.84583e-06
3.13893e-10
2.85717e-06
4.27922e-08
2.85142e-06
4.33706e-08
2.85388e-06
2.87706e-08
2.85286e-06
6.60182e-08
2.84743e-06
7.17739e-08
2.84556e-06
1.06319e-07
2.84123e-06
1.4185e-07
1.73231e-07
2.83955e-06
2.9802e-06
3.12158e-07
2.97316e-06
-2.41069e-07
2.97829e-06
1.12355e-07
2.97378e-06
-7.22001e-08
2.97633e-06
-2.823e-08
2.97077e-06
-6.14974e-08
2.98097e-06
1.41494e-07
2.97373e-06
-6.86605e-08
2.98804e-06
1.59953e-07
2.97669e-06
-5.70157e-08
2.99254e-06
1.08518e-07
2.98289e-06
9.9733e-09
2.99281e-06
3.28654e-08
2.98901e-06
4.71767e-08
2.98968e-06
2.80979e-08
2.98981e-06
6.58877e-08
2.98401e-06
7.75705e-08
2.9818e-06
1.08529e-07
2.97838e-06
1.45273e-07
1.75298e-07
2.97631e-06
3.12272e-06
3.04447e-07
3.11489e-06
-2.33244e-07
3.12094e-06
1.06307e-07
3.11546e-06
-6.67241e-08
3.11903e-06
-3.17978e-08
3.11262e-06
-5.50829e-08
3.12367e-06
1.30442e-07
3.11591e-06
-6.09006e-08
3.13063e-06
1.45233e-07
3.11955e-06
-4.59379e-08
3.13482e-06
9.32469e-08
3.12668e-06
1.81121e-08
3.13492e-06
2.46322e-08
3.13305e-06
4.90485e-08
3.13223e-06
2.89096e-08
3.13305e-06
6.50703e-08
3.12739e-06
8.32361e-08
3.12461e-06
1.11304e-07
3.12194e-06
1.47944e-07
1.7751e-07
3.11973e-06
3.27205e-06
2.96308e-07
3.26335e-06
-2.24541e-07
3.27042e-06
9.92361e-08
3.26391e-06
-6.02175e-08
3.26853e-06
-3.64177e-08
3.26131e-06
-4.7865e-08
3.27307e-06
1.18683e-07
3.26505e-06
-5.28809e-08
3.27981e-06
1.30476e-07
3.26948e-06
-3.5613e-08
3.28373e-06
7.90014e-08
3.27744e-06
2.44067e-08
3.2839e-06
1.81698e-08
3.28374e-06
4.92093e-08
3.28185e-06
3.07948e-08
3.28286e-06
6.40581e-08
3.27769e-06
8.84061e-08
3.27429e-06
1.14707e-07
3.2721e-06
1.50138e-07
1.79623e-07
3.26998e-06
3.42851e-06
2.87725e-07
3.41884e-06
-2.14869e-07
3.42704e-06
9.10427e-08
3.41946e-06
-5.26439e-08
3.42511e-06
-4.20683e-08
3.41722e-06
-3.99766e-08
3.42944e-06
1.06467e-07
3.42153e-06
-4.49732e-08
3.43588e-06
1.16125e-07
3.42678e-06
-2.65043e-08
3.43967e-06
6.61077e-08
3.43531e-06
2.87665e-08
3.44017e-06
1.3314e-08
3.44131e-06
4.80682e-08
3.43873e-06
3.33698e-08
3.43946e-06
6.33337e-08
3.43493e-06
9.29326e-08
3.43101e-06
1.18624e-07
3.42902e-06
1.5213e-07
1.81449e-07
3.42719e-06
3.59245e-06
2.78689e-07
3.58172e-06
-2.04145e-07
3.59112e-06
8.16501e-08
3.58249e-06
-4.40169e-08
3.58907e-06
-4.86525e-08
3.58074e-06
-3.16482e-08
3.59306e-06
9.41554e-08
3.58572e-06
-3.76359e-08
3.5992e-06
1.02646e-07
3.59168e-06
-1.89899e-08
3.60307e-06
5.47198e-08
3.60049e-06
3.1349e-08
3.60406e-06
9.74208e-09
3.60598e-06
4.61534e-08
3.60288e-06
3.64613e-08
3.60288e-06
6.33377e-08
3.59895e-06
9.68611e-08
3.59473e-06
1.22847e-07
3.59279e-06
1.54065e-07
1.8284e-07
3.5914e-06
3.7642e-06
2.69197e-07
3.75235e-06
-1.92303e-07
3.76298e-06
7.1024e-08
3.75339e-06
-3.4423e-08
3.76071e-06
-5.59719e-08
3.75228e-06
-2.32265e-08
3.76424e-06
8.2203e-08
3.75795e-06
-3.13524e-08
3.77016e-06
9.04431e-08
3.76443e-06
-1.32606e-08
3.77439e-06
4.47605e-08
3.77319e-06
3.25405e-08
3.7758e-06
7.13332e-09
3.77784e-06
4.41169e-08
3.77412e-06
4.01835e-08
3.77311e-06
6.43461e-08
3.76964e-06
1.00332e-07
3.76533e-06
1.27161e-07
3.7635e-06
1.55891e-07
1.8364e-07
3.7627e-06
3.94413e-06
2.59256e-07
3.93113e-06
-1.79303e-07
3.94296e-06
5.91969e-08
3.93258e-06
-2.40452e-08
3.94032e-06
-6.37147e-08
3.93225e-06
-1.51589e-08
3.94334e-06
7.11171e-08
3.93855e-06
-2.65663e-08
3.94923e-06
7.9768e-08
3.94521e-06
-9.24363e-09
3.954e-06
3.59687e-08
3.95371e-06
3.28395e-08
3.95538e-06
5.45437e-09
3.95696e-06
4.25433e-08
3.95235e-06
4.47898e-08
3.95025e-06
6.64508e-08
3.94714e-06
1.03438e-07
3.94295e-06
1.31346e-07
3.94137e-06
1.57472e-07
1.83702e-07
3.94131e-06
4.13262e-06
2.48885e-07
4.11847e-06
-1.65156e-07
4.13137e-06
4.63005e-08
4.12051e-06
-1.31867e-08
4.12824e-06
-7.14461e-08
4.12106e-06
-7.9764e-09
4.13078e-06
6.14025e-08
4.12781e-06
-2.36049e-08
4.13693e-06
7.06558e-08
4.13428e-06
-6.59342e-09
4.14223e-06
2.80168e-08
4.14225e-06
3.28181e-08
4.14266e-06
5.04205e-09
4.14348e-06
4.17204e-08
4.13791e-06
5.036e-08
4.13476e-06
6.96072e-08
4.13201e-06
1.06188e-07
4.12821e-06
1.35145e-07
4.12695e-06
1.58737e-07
1.82989e-07
4.12766e-06
4.33007e-06
2.3812e-07
4.31484e-06
-1.49933e-07
4.32855e-06
3.2592e-08
4.31764e-06
-2.27374e-09
4.32484e-06
-7.86463e-08
4.31908e-06
-2.22061e-09
4.32702e-06
5.34671e-08
4.32598e-06
-2.25628e-08
4.33375e-06
6.28813e-08
4.33193e-06
-4.77435e-09
4.33922e-06
2.0727e-08
4.33906e-06
3.29844e-08
4.33771e-06
6.38914e-09
4.33776e-06
4.16741e-08
4.33153e-06
5.6587e-08
4.32746e-06
7.36784e-08
4.32508e-06
1.08565e-07
4.32194e-06
1.38283e-07
4.32101e-06
1.59668e-07
1.81643e-07
4.32235e-06
4.53688e-06
2.27014e-07
4.52073e-06
-1.33783e-07
4.53484e-06
1.84788e-08
4.52441e-06
8.16124e-09
4.53053e-06
-8.47682e-08
4.52668e-06
1.62558e-09
4.53264e-06
4.75087e-08
4.53329e-06
-2.32131e-08
4.54016e-06
5.60174e-08
4.53855e-06
-3.17053e-09
4.54508e-06
1.41964e-08
4.5444e-06
3.36665e-08
4.5411e-06
9.69593e-09
4.54036e-06
4.24066e-08
4.53402e-06
6.29286e-08
4.52926e-06
7.8437e-08
4.5272e-06
1.10627e-07
4.52497e-06
1.40517e-07
4.52436e-06
1.60271e-07
1.79901e-07
4.52611e-06
4.75349e-06
2.15637e-07
4.73665e-06
-1.1694e-07
4.75061e-06
4.51547e-09
4.74125e-06
1.75189e-08
4.74581e-06
-8.932e-08
4.74418e-06
3.24925e-09
4.74827e-06
4.34216e-08
4.75008e-06
-2.50192e-08
4.75649e-06
4.96001e-08
4.75456e-06
-1.23419e-09
4.75997e-06
8.78283e-09
4.75871e-06
3.49265e-08
4.75361e-06
1.47917e-08
4.75207e-06
4.39549e-08
4.74617e-06
6.88278e-08
4.74099e-06
8.36144e-08
4.73911e-06
1.12506e-07
4.73795e-06
1.4168e-07
4.73767e-06
1.60554e-07
1.77942e-07
4.73963e-06
4.98035e-06
2.04081e-07
4.96314e-06
-9.9721e-08
4.97627e-06
-8.62184e-09
4.96859e-06
2.51991e-08
4.97124e-06
-9.19727e-08
4.97187e-06
2.6204e-09
4.97448e-06
4.08107e-08
4.97672e-06
-2.72578e-08
4.98304e-06
4.3284e-08
4.98038e-06
1.42366e-09
4.9843e-06
4.86621e-09
4.98253e-06
3.66916e-08
4.97605e-06
2.12723e-08
4.97372e-06
4.62857e-08
4.96862e-06
7.39285e-08
4.96331e-06
8.89278e-08
4.96149e-06
1.14326e-07
4.96138e-06
1.4179e-07
4.96146e-06
1.60473e-07
1.75832e-07
4.96357e-06
5.21795e-06
1.92447e-07
5.20075e-06
-8.2516e-08
5.21234e-06
-2.02125e-08
5.20681e-06
3.07217e-08
5.20752e-06
-9.26762e-08
5.21009e-06
4.53245e-11
5.21177e-06
3.91329e-08
5.21377e-06
-2.92532e-08
5.22003e-06
3.70235e-08
5.21652e-06
4.93391e-09
5.2186e-06
2.77739e-09
5.21657e-06
3.87261e-08
5.20909e-06
2.87492e-08
5.20614e-06
4.92408e-08
5.20195e-06
7.81177e-08
5.19677e-06
9.41024e-08
5.19499e-06
1.16109e-07
5.19565e-06
1.41136e-07
5.19624e-06
1.59883e-07
1.73556e-07
5.19851e-06
5.46679e-06
1.80845e-07
5.45003e-06
-6.57508e-08
5.45947e-06
-2.96579e-08
5.45627e-06
3.39186e-08
5.4553e-06
-9.17014e-08
5.45927e-06
-3.92197e-09
5.46049e-06
3.79066e-08
5.46183e-06
-3.05929e-08
5.46775e-06
3.11085e-08
5.4634e-06
9.283e-09
5.4636e-06
2.57646e-09
5.46146e-06
4.08704e-08
5.45344e-06
3.6763e-08
5.45001e-06
5.26754e-08
5.44668e-06
8.14484e-08
5.4419e-06
9.88772e-08
5.44021e-06
1.17803e-07
5.44123e-06
1.40114e-07
5.44247e-06
1.58639e-07
1.71048e-07
5.44498e-06
5.72742e-06
1.69384e-07
5.71155e-06
-4.98776e-08
5.71844e-06
-3.65526e-08
5.71733e-06
3.50289e-08
5.7152e-06
-8.95679e-08
5.71994e-06
-8.66921e-09
5.721e-06
3.68504e-08
5.72154e-06
-3.11349e-08
5.7267e-06
2.59486e-08
5.7216e-06
1.4381e-08
5.71999e-06
4.18607e-09
5.71792e-06
4.29476e-08
5.7098e-06
4.48786e-08
5.70591e-06
5.65699e-08
5.70334e-06
8.40155e-08
5.6992e-06
1.03017e-07
5.69764e-06
1.19367e-07
5.69874e-06
1.39015e-07
5.70065e-06
1.56723e-07
1.6821e-07
5.70349e-06
6.00042e-06
1.58161e-07
5.98587e-06
-3.53341e-08
5.99007e-06
-4.07474e-08
5.99041e-06
3.46851e-08
5.9877e-06
-8.6861e-08
5.99276e-06
-1.3728e-08
5.9937e-06
3.59153e-08
5.99334e-06
-3.07755e-08
5.99759e-06
2.16954e-08
5.9918e-06
2.01678e-08
5.98859e-06
7.40393e-09
5.98663e-06
4.49065e-08
5.9788e-06
5.27019e-08
5.97445e-06
6.0926e-08
5.97248e-06
8.59793e-08
5.9692e-06
1.06301e-07
5.96778e-06
1.20787e-07
5.96881e-06
1.37985e-07
5.9713e-06
1.54236e-07
1.64955e-07
5.97455e-06
6.28639e-06
1.47258e-07
6.27351e-06
-2.24545e-08
6.27517e-06
-4.24056e-08
6.27609e-06
3.37669e-08
6.27323e-06
-8.40034e-08
6.2784e-06
-1.88937e-08
6.27913e-06
3.5185e-08
6.27756e-06
-2.92084e-08
6.28104e-06
1.82193e-08
6.27476e-06
2.6448e-08
6.27003e-06
1.21325e-08
6.26826e-06
4.66725e-08
6.2611e-06
5.98656e-08
6.25626e-06
6.57627e-08
6.25468e-06
8.75605e-08
6.25244e-06
1.08542e-07
6.25117e-06
1.22055e-07
6.25211e-06
1.37048e-07
6.25499e-06
1.51354e-07
1.61244e-07
6.2587e-06
6.58599e-06
1.36738e-07
6.57493e-06
-1.13906e-08
6.57449e-06
-4.19694e-08
6.57515e-06
3.31079e-08
6.57223e-06
-8.10874e-08
6.57745e-06
-2.41109e-08
6.57793e-06
3.47024e-08
6.5749e-06
-2.61791e-08
6.57761e-06
1.55146e-08
6.57113e-06
3.2929e-08
6.56515e-06
1.81115e-08
6.56347e-06
4.83471e-08
6.55726e-06
6.60757e-08
6.55202e-06
7.10081e-08
6.55056e-06
8.90156e-08
6.54944e-06
1.09668e-07
6.54841e-06
1.23086e-07
6.5493e-06
1.36157e-07
6.55238e-06
1.48267e-07
1.57112e-07
6.55652e-06
6.89988e-06
1.26647e-07
6.8906e-06
-2.11443e-09
6.88868e-06
-4.0048e-08
6.88858e-06
3.3206e-08
6.88513e-06
-7.76375e-08
6.89047e-06
-2.94413e-08
6.89079e-06
3.43773e-08
6.8863e-06
-2.16871e-08
6.88798e-06
1.38358e-08
6.88172e-06
3.91901e-08
6.87472e-06
2.51103e-08
6.87299e-06
5.00739e-08
6.86786e-06
7.12073e-08
6.86242e-06
7.64462e-08
6.86085e-06
9.05845e-08
6.86071e-06
1.09807e-07
6.86011e-06
1.23692e-07
6.86104e-06
1.35222e-07
6.86418e-06
1.45131e-07
1.52657e-07
6.86863e-06
7.22876e-06
1.17021e-07
7.22109e-06
5.55776e-09
7.21834e-06
-3.7297e-08
7.21738e-06
3.41662e-08
7.21262e-06
-7.28806e-08
7.21778e-06
-3.45991e-08
7.21829e-06
3.38707e-08
7.21244e-06
-1.58383e-08
7.213e-06
1.32756e-08
7.20717e-06
4.50163e-08
7.19953e-06
3.2751e-08
7.19754e-06
5.20696e-08
7.19349e-06
7.52557e-08
7.18815e-06
8.17824e-08
7.18633e-06
9.24011e-08
7.18686e-06
1.09281e-07
7.18691e-06
1.23643e-07
7.18801e-06
1.34119e-07
7.19111e-06
1.42032e-07
1.48015e-07
7.19575e-06
7.57336e-06
1.07882e-07
7.5671e-06
1.18262e-08
7.56397e-06
-3.41717e-08
7.56241e-06
3.57234e-08
7.55568e-06
-6.61503e-08
7.56007e-06
-3.89903e-08
7.56094e-06
3.3003e-08
7.55404e-06
-8.9386e-09
7.55342e-06
1.38993e-08
7.54826e-06
5.01738e-08
7.54024e-06
4.077e-08
7.53788e-06
5.44303e-08
7.53482e-06
7.83135e-08
7.52988e-06
8.67309e-08
7.52779e-06
9.44848e-08
7.5286e-06
1.08469e-07
7.52945e-06
1.22796e-07
7.53088e-06
1.32687e-07
7.53395e-06
1.38969e-07
1.43322e-07
7.53864e-06
7.93445e-06
9.92443e-08
7.92937e-06
1.69007e-08
7.92615e-06
-3.0947e-08
7.92429e-06
3.75795e-08
7.91566e-06
-5.75189e-08
7.91817e-06
-4.14947e-08
7.91926e-06
3.19071e-08
7.91184e-06
-1.51764e-09
7.91026e-06
1.54831e-08
7.90575e-06
5.46867e-08
7.89763e-06
4.88894e-08
7.89477e-06
5.7282e-08
7.89258e-06
8.05059e-08
7.8883e-06
9.1016e-08
7.88598e-06
9.68003e-08
7.88681e-06
1.07644e-07
7.88841e-06
1.21195e-07
7.89032e-06
1.3077e-07
7.89343e-06
1.35865e-07
1.3867e-07
7.89808e-06
8.3128e-06
9.11251e-08
8.30879e-06
2.09146e-08
8.30546e-06
-2.76229e-08
8.30367e-06
3.93723e-08
8.29355e-06
-4.73972e-08
8.29333e-06
-4.12785e-08
8.29399e-06
3.12519e-08
8.28646e-06
6.00985e-09
8.28428e-06
1.76645e-08
8.28047e-06
5.8496e-08
8.27248e-06
5.68809e-08
8.26901e-06
6.0752e-08
8.26751e-06
8.20058e-08
8.26411e-06
9.44132e-08
8.2617e-06
9.92145e-08
8.26237e-06
1.06974e-07
8.26454e-06
1.19025e-07
8.26704e-06
1.28265e-07
8.27031e-06
1.32594e-07
1.34085e-07
8.2749e-06
8.70925e-06
8.35405e-08
8.70624e-06
2.39254e-08
8.70264e-06
-2.40315e-08
8.70126e-06
4.07594e-08
8.68997e-06
-3.61141e-08
8.68682e-06
-3.81206e-08
8.68639e-06
3.1674e-08
8.67884e-06
1.35604e-08
8.67608e-06
2.04232e-08
8.67318e-06
6.14025e-08
8.66557e-06
6.4488e-08
8.66146e-06
6.48658e-08
8.66041e-06
8.30567e-08
8.65801e-06
9.68096e-08
8.65575e-06
1.01479e-07
8.65619e-06
1.06531e-07
8.65868e-06
1.16534e-07
8.66178e-06
1.25163e-07
8.66536e-06
1.29018e-07
1.29523e-07
8.66992e-06
9.12467e-06
7.64871e-08
9.12249e-06
2.61127e-08
9.11882e-06
-2.03692e-08
9.11733e-06
4.22511e-08
9.10576e-06
-2.45445e-08
9.10009e-06
-3.24537e-08
9.09796e-06
3.38055e-08
9.08984e-06
2.16847e-08
9.0867e-06
2.35601e-08
9.0847e-06
6.34052e-08
9.07772e-06
7.14664e-08
9.07304e-06
6.95492e-08
9.07216e-06
8.39311e-08
9.07075e-06
9.82234e-08
9.06895e-06
1.0328e-07
9.06917e-06
1.0631e-07
9.07176e-06
1.13949e-07
9.07536e-06
1.2156e-07
9.07933e-06
1.25043e-07
1.24884e-07
9.08397e-06
9.55999e-06
6.99558e-08
9.55833e-06
2.77695e-08
9.55485e-06
-1.688e-08
9.55292e-06
4.41783e-08
9.54144e-06
-1.3069e-08
9.53401e-06
-2.50194e-08
9.52999e-06
3.78218e-08
9.52088e-06
3.08006e-08
9.51705e-06
2.73901e-08
9.51586e-06
6.45895e-08
9.50981e-06
7.75199e-08
9.50468e-06
7.46795e-08
9.50371e-06
8.48988e-08
9.50317e-06
9.87638e-08
9.50211e-06
1.04345e-07
9.50221e-06
1.06206e-07
9.50474e-06
1.11415e-07
9.50869e-06
1.17615e-07
9.51309e-06
1.20643e-07
1.20066e-07
9.51791e-06
1.00161e-05
6.39476e-08
1.00148e-05
2.91206e-08
1.00115e-05
-1.3629e-08
1.00091e-05
4.65999e-08
9.9976e-06
-1.55246e-09
9.98909e-06
-1.65042e-08
9.98358e-06
4.33291e-08
9.97326e-06
4.11184e-08
9.96821e-06
3.24391e-08
9.9676e-06
6.52023e-08
9.96271e-06
8.24125e-08
9.95737e-06
8.00174e-08
9.95604e-06
8.62274e-08
9.95624e-06
9.85662e-08
9.95599e-06
1.04589e-07
9.95621e-06
1.05986e-07
9.95864e-06
1.08987e-07
9.96276e-06
1.13498e-07
9.96753e-06
1.15875e-07
1.14986e-07
9.97261e-06
1.04941e-05
5.84615e-08
1.0493e-05
3.02554e-08
1.04897e-05
-1.02946e-08
1.04871e-05
4.91645e-08
1.04753e-05
1.0274e-08
1.04661e-05
-7.32843e-09
1.04596e-05
4.98148e-08
1.04481e-05
5.26187e-08
1.04415e-05
3.9002e-08
1.0441e-05
6.57271e-08
1.04373e-05
8.60789e-08
1.04321e-05
8.52942e-08
1.04303e-05
8.8035e-08
1.04309e-05
9.79016e-08
1.04315e-05
1.04047e-07
1.04321e-05
1.05373e-07
1.04345e-05
1.06615e-07
1.04386e-05
1.09339e-07
1.04436e-05
1.10843e-07
1.0962e-07
1.0449e-05
1.0995e-05
5.34791e-08
1.09941e-05
3.11608e-08
1.09902e-05
-6.43794e-09
1.09876e-05
5.18081e-08
1.09758e-05
2.20891e-08
1.09657e-05
2.74951e-09
1.09588e-05
5.67506e-08
1.09465e-05
6.48973e-08
1.09382e-05
4.72394e-08
1.09373e-05
6.66837e-08
1.09347e-05
8.86441e-08
1.09298e-05
9.02367e-08
1.09275e-05
9.03166e-08
1.09283e-05
9.71506e-08
1.09295e-05
1.02761e-07
1.09307e-05
1.0418e-07
1.09332e-05
1.04173e-07
1.09373e-05
1.05189e-07
1.09425e-05
1.05642e-07
1.04001e-07
1.09481e-05
1.15199e-05
4.89493e-08
1.15188e-05
3.22835e-08
1.15149e-05
-2.52292e-09
1.15116e-05
5.50473e-08
1.14998e-05
3.3873e-08
1.14892e-05
1.34205e-08
1.14819e-05
6.40206e-08
1.14694e-05
7.73983e-08
1.14594e-05
5.71857e-08
1.14576e-05
6.85115e-08
1.14559e-05
9.03445e-08
1.14516e-05
9.45901e-08
1.14489e-05
9.29855e-08
1.14494e-05
9.66359e-08
1.14513e-05
1.00908e-07
1.14531e-05
1.02294e-07
1.14558e-05
1.01517e-07
1.14599e-05
1.01047e-07
1.14652e-05
1.00366e-07
9.81906e-08
1.1471e-05
1.207e-05
4.48102e-08
1.20684e-05
3.38236e-08
1.20644e-05
1.52187e-09
1.20604e-05
5.89752e-08
1.20486e-05
4.56818e-08
1.20377e-05
2.43906e-08
1.20301e-05
7.1564e-08
1.20178e-05
8.97731e-08
1.20063e-05
6.86162e-08
1.20032e-05
7.16386e-08
1.20021e-05
9.14619e-08
1.19985e-05
9.81993e-08
1.19956e-05
9.58865e-08
1.19957e-05
9.64962e-08
1.19978e-05
9.88357e-08
1.20004e-05
9.97031e-08
1.20034e-05
9.84889e-08
1.20076e-05
9.68619e-08
1.20129e-05
9.50659e-08
9.22575e-08
1.20188e-05
1.26464e-05
4.10083e-08
1.26443e-05
3.59373e-08
1.264e-05
5.81127e-09
1.26354e-05
6.35689e-08
1.26232e-05
5.78958e-08
1.26121e-05
3.54466e-08
1.26049e-05
7.88122e-08
1.25926e-05
1.0206e-07
1.258e-05
8.12257e-08
1.25753e-05
7.63444e-08
1.25744e-05
9.23391e-08
1.25716e-05
1.00989e-07
1.25687e-05
9.87989e-08
1.25684e-05
9.67668e-08
1.25704e-05
9.68395e-08
1.25735e-05
9.66152e-08
1.2577e-05
9.49629e-08
1.25814e-05
9.25283e-08
1.25867e-05
8.9742e-08
8.62616e-08
1.25927e-05
1.32505e-05
3.74829e-08
1.32477e-05
3.87247e-08
1.32429e-05
1.06104e-08
1.32378e-05
6.86326e-08
1.3225e-05
7.0681e-08
1.32137e-05
4.675e-08
1.3207e-05
8.54838e-08
1.31954e-05
1.13739e-07
1.31817e-05
9.49133e-08
1.31753e-05
8.27591e-08
1.31741e-05
9.35e-08
1.31721e-05
1.02948e-07
1.31695e-05
1.01477e-07
1.31688e-05
9.74274e-08
1.31706e-05
9.50286e-08
1.31739e-05
9.33383e-08
1.31779e-05
9.09525e-08
1.31825e-05
8.79138e-08
1.31879e-05
8.43545e-08
8.02322e-08
1.31939e-05
1.38835e-05
3.41816e-08
1.38798e-05
4.24378e-08
1.38745e-05
1.58898e-08
1.38691e-05
7.39712e-08
1.38557e-05
8.41019e-08
1.38439e-05
5.8613e-08
1.38379e-05
9.14272e-08
1.38272e-05
1.24404e-07
1.38128e-05
1.09328e-07
1.38045e-05
9.1082e-08
1.38026e-05
9.54149e-08
1.38013e-05
1.04219e-07
1.37991e-05
1.03737e-07
1.37981e-05
9.83414e-08
1.37997e-05
9.35055e-08
1.3803e-05
9.00258e-08
1.38073e-05
8.66471e-08
1.38122e-05
8.29618e-08
1.38178e-05
7.8798e-08
7.41503e-08
1.38239e-05
1.45467e-05
3.11118e-08
1.45421e-05
4.71212e-08
1.45362e-05
2.17799e-08
1.45309e-05
7.92105e-08
1.4517e-05
9.80123e-08
1.45042e-05
7.14728e-08
1.44985e-05
9.70736e-08
1.44894e-05
1.33475e-07
1.44748e-05
1.23923e-07
1.44645e-05
1.01416e-07
1.44614e-05
9.85233e-08
1.44604e-05
1.05179e-07
1.44587e-05
1.05445e-07
1.44577e-05
9.93379e-08
1.44589e-05
9.23324e-08
1.44622e-05
8.67363e-08
1.44666e-05
8.22181e-08
1.44718e-05
7.77914e-08
1.44775e-05
7.30786e-08
6.78939e-08
1.44838e-05
1.52416e-05
2.83542e-08
1.52363e-05
5.24505e-08
1.52292e-05
2.89304e-08
1.52246e-05
8.38047e-08
1.52107e-05
1.11875e-07
1.51961e-05
8.60607e-08
1.51903e-05
1.02869e-07
1.51831e-05
1.40709e-07
1.5169e-05
1.37976e-07
1.51569e-05
1.13519e-07
1.51521e-05
1.03361e-07
1.5151e-05
1.06279e-07
1.51498e-05
1.06613e-07
1.51489e-05
1.00283e-07
1.51497e-05
9.14825e-08
1.51529e-05
8.35735e-08
1.51574e-05
7.77032e-08
1.51627e-05
7.24499e-08
1.51687e-05
6.71515e-08
6.14039e-08
1.51752e-05
1.59696e-05
2.60444e-08
1.59639e-05
5.82238e-08
1.59554e-05
3.73592e-08
1.59513e-05
8.79358e-08
1.59382e-05
1.24967e-07
1.59219e-05
1.02369e-07
1.59151e-05
1.09695e-07
1.59095e-05
1.46303e-07
1.58967e-05
1.50777e-07
1.58834e-05
1.26825e-07
1.58764e-05
1.10336e-07
1.58746e-05
1.08061e-07
1.58738e-05
1.0745e-07
1.5873e-05
1.01052e-07
1.58736e-05
9.09429e-08
1.58764e-05
8.06797e-08
1.5881e-05
7.31991e-08
1.58865e-05
6.69271e-08
1.58927e-05
6.0967e-08
5.47232e-08
1.58993e-05
1.67323e-05
2.43376e-08
1.67266e-05
6.39467e-08
1.67167e-05
4.72462e-08
1.67126e-05
9.19865e-08
1.67011e-05
1.36511e-07
1.66835e-05
1.19969e-07
1.66748e-05
1.18445e-07
1.66701e-05
1.50911e-07
1.66591e-05
1.61792e-07
1.66453e-05
1.40704e-07
1.66361e-05
1.19456e-07
1.66331e-05
1.11141e-07
1.66321e-05
1.0838e-07
1.66315e-05
1.01639e-07
1.66319e-05
9.05593e-08
1.66343e-05
7.83261e-08
1.66387e-05
6.87864e-08
1.66442e-05
6.1397e-08
1.66508e-05
5.44019e-08
4.79026e-08
1.66576e-05
1.75313e-05
2.33589e-08
1.75264e-05
6.89312e-08
1.75148e-05
5.87898e-08
1.75103e-05
9.65007e-08
1.75007e-05
1.46147e-07
1.74828e-05
1.37815e-07
1.74715e-05
1.29795e-07
1.74669e-05
1.55503e-07
1.74578e-05
1.70843e-07
1.7444e-05
1.54491e-07
1.7433e-05
1.30452e-07
1.74281e-05
1.1607e-07
1.74265e-05
1.10002e-07
1.74259e-05
1.02235e-07
1.74262e-05
9.0267e-08
1.7428e-05
7.65481e-08
1.7432e-05
6.474e-08
1.74374e-05
5.59647e-08
1.74442e-05
4.76183e-08
4.05133e-08
1.74516e-05
1.83685e-05
2.31587e-08
1.83644e-05
7.31228e-08
1.83518e-05
7.13257e-08
1.83462e-05
1.02126e-07
1.83383e-05
1.54046e-07
1.83215e-05
1.54631e-07
1.83078e-05
1.4351e-07
1.83019e-05
1.61379e-07
1.82943e-05
1.78407e-07
1.82813e-05
1.67495e-07
1.82689e-05
1.42883e-07
1.82617e-05
1.23296e-07
1.82587e-05
1.12956e-07
1.82577e-05
1.03272e-07
1.82577e-05
9.02517e-08
1.82591e-05
7.51553e-08
1.82624e-05
6.13927e-08
1.82677e-05
5.06473e-08
1.82747e-05
4.06251e-08
3.23526e-08
1.82829e-05
1.92458e-05
2.36997e-08
1.92425e-05
7.65138e-08
1.92296e-05
8.41404e-08
1.92225e-05
1.09288e-07
1.92161e-05
1.60426e-07
1.92008e-05
1.69936e-07
1.91856e-05
1.58738e-07
1.91778e-05
1.69142e-07
1.91707e-05
1.85527e-07
1.91588e-05
1.79387e-07
1.91454e-05
1.56258e-07
1.91357e-05
1.33029e-07