/*--------------------------------*- C++ -*----------------------------------*\
| =========                 |                                                 |
| \\      /  F ield         | OpenFOAM: The Open Source CFD Toolbox           |
|  \\    /   O peration     | Version:  v2012                                 |
|   \\  /    A nd           | Website:  www.openfoam.com                      |
|    \\/     M anipulation  |                                                 |
\*---------------------------------------------------------------------------*/
FoamFile
{
    version     2.0;
    format      ascii;
    class       volScalarField;
    location    "3.35";
    object      p;
}
// * * * * * * * * * * * * * * * * * * * * * * * * * * * * * * * * * * * * * //

dimensions      [0 2 -2 0 0 0 0];


internalField   nonuniform List<scalar> 
17600
(
-2.25963e-11
-0.0023368
-0.00335703
-0.00283162
-0.00352621
-0.00349527
-0.00424753
-0.00503208
-0.00532112
-0.00548706
-0.00595202
-0.00627899
-0.00654815
-0.00646121
-0.00641271
-0.00576741
-0.00502631
-0.00337542
-0.00133134
0.00259656
1.34449e-06
-0.00234013
-0.00335615
-0.00283234
-0.00352554
-0.00349755
-0.00424602
-0.00503484
-0.00531943
-0.00548972
-0.00594965
-0.00628266
-0.00654372
-0.00646751
-0.00640462
-0.00578101
-0.00501283
-0.00342036
-0.00131762
0.00227688
1.92146e-06
-0.00234487
-0.00335358
-0.00283355
-0.00352479
-0.00350097
-0.00424362
-0.00503856
-0.00531708
-0.00549355
-0.00594641
-0.00628797
-0.00653866
-0.00647655
-0.00639636
-0.00579962
-0.00499941
-0.0034763
-0.00132109
0.001844
3.61608e-07
-0.00234944
-0.00334948
-0.00283444
-0.00352444
-0.00350484
-0.00424124
-0.00504236
-0.00531507
-0.00549742
-0.00594343
-0.00629354
-0.00653407
-0.00648641
-0.00638886
-0.00581984
-0.00498774
-0.00353372
-0.00135253
0.0014288
-3.18467e-06
-0.00235352
-0.00334386
-0.00283516
-0.00352461
-0.00350936
-0.00423887
-0.00504647
-0.00531326
-0.00550137
-0.0059404
-0.00629947
-0.00652928
-0.00649729
-0.00638099
-0.00584192
-0.00497743
-0.00359475
-0.00141375
0.00103498
-8.34948e-06
-0.00235699
-0.00333697
-0.002836
-0.00352524
-0.00351455
-0.00423636
-0.00505098
-0.00531131
-0.00550546
-0.00593697
-0.00630586
-0.00652403
-0.00650926
-0.00637275
-0.00586598
-0.00497006
-0.00366014
-0.00150462
0.000664321
-1.47816e-05
-0.00235977
-0.00332922
-0.0028371
-0.00352612
-0.00352032
-0.00423366
-0.00505585
-0.00530905
-0.00550964
-0.00593308
-0.00631272
-0.00651844
-0.00652221
-0.00636489
-0.00589156
-0.00496776
-0.00372929
-0.00162402
0.000312941
-2.20967e-05
-0.00236189
-0.00332095
-0.00283844
-0.00352704
-0.00352659
-0.00423076
-0.00506105
-0.00530644
-0.00551392
-0.00592882
-0.00632007
-0.00651277
-0.00653603
-0.00635817
-0.00591788
-0.00497278
-0.00380105
-0.00177091
-2.5263e-05
-2.99387e-05
-0.00236349
-0.00331233
-0.00283994
-0.00352784
-0.00353329
-0.00422766
-0.00506661
-0.00530351
-0.00551833
-0.00592429
-0.00632791
-0.00650729
-0.00655044
-0.00635345
-0.00594407
-0.00498713
-0.00387481
-0.00194374
-0.000356385
-3.80558e-05
-0.00236477
-0.00330343
-0.00284152
-0.00352842
-0.00354038
-0.00422437
-0.00507253
-0.00530033
-0.00552284
-0.0059196
-0.00633616
-0.00650229
-0.00656504
-0.00635165
-0.00596938
-0.00501242
-0.00395076
-0.00213976
-0.000685672
-4.63099e-05
-0.0023659
-0.00329424
-0.00284312
-0.00352878
-0.00354783
-0.00422094
-0.00507883
-0.00529694
-0.00552739
-0.00591487
-0.00634462
-0.0064982
-0.00657934
-0.00635367
-0.00599336
-0.00504988
-0.00403049
-0.00235503
-0.00101715
-5.46392e-05
-0.002367
-0.00328477
-0.00284473
-0.00352894
-0.00355561
-0.00421738
-0.00508547
-0.00529339
-0.00553188
-0.00591032
-0.00635302
-0.00649555
-0.00659276
-0.00636031
-0.00601601
-0.00509999
-0.00411633
-0.0025851
-0.00135341
-6.30184e-05
-0.00236817
-0.00327503
-0.0028463
-0.0035289
-0.00356368
-0.00421374
-0.00509242
-0.00528979
-0.00553614
-0.00590618
-0.006361
-0.00649489
-0.00660483
-0.00637213
-0.00603789
-0.00516237
-0.00421128
-0.00282586
-0.00169554
-7.14367e-05
-0.00236942
-0.00326501
-0.0028478
-0.00352869
-0.00357199
-0.00421007
-0.00509958
-0.00528625
-0.00553997
-0.00590277
-0.00636819
-0.00649675
-0.00661528
-0.00638948
-0.00606025
-0.00523575
-0.00431818
-0.00307421
-0.00204351
-7.9891e-05
-0.00237077
-0.00325475
-0.00284918
-0.00352834
-0.00358051
-0.00420644
-0.00510686
-0.00528297
-0.00554308
-0.00590044
-0.00637424
-0.00650157
-0.00662406
-0.00641264
-0.0060848
-0.00531816
-0.00443898
-0.00332826
-0.00239638
-8.83865e-05
-0.00237219
-0.00324429
-0.00285036
-0.00352788
-0.00358915
-0.00420293
-0.00511406
-0.00528018
-0.00554516
-0.00589955
-0.00637887
-0.00650963
-0.00663152
-0.00644163
-0.00611396
-0.00540786
-0.00457508
-0.00358708
-0.00275248
-9.69378e-05
-0.00237362
-0.00323367
-0.00285128
-0.00352739
-0.00359785
-0.00419969
-0.00512098
-0.00527814
-0.0055459
-0.00590036
-0.006382
-0.00652093
-0.00663858
-0.00647549
-0.00615007
-0.00550442
-0.00472723
-0.00385049
-0.00310976
-0.000105569
-0.00237499
-0.00322296
-0.00285182
-0.00352695
-0.00360649
-0.00419688
-0.00512737
-0.00527712
-0.00554508
-0.00590304
-0.00638376
-0.00653515
-0.00664647
-0.00651292
-0.00619445
-0.00560831
-0.00489514
-0.00411904
-0.00346622
-0.000114315
-0.0023762
-0.00321224
-0.00285187
-0.00352665
-0.00361492
-0.0041947
-0.00513302
-0.00527731
-0.00554261
-0.00590755
-0.00638449
-0.00655179
-0.00665645
-0.00655332
-0.00624847
-0.00572014
-0.00507775
-0.00439384
-0.00382034
-0.000123224
-0.00237711
-0.00320162
-0.00285129
-0.0035266
-0.00362296
-0.00419336
-0.00513777
-0.00527887
-0.00553851
-0.00591373
-0.00638458
-0.00656975
-0.00666974
-0.00659653
-0.0063132
-0.00584077
-0.00527374
-0.00467603
-0.00417154
-0.000132366
-0.00237755
-0.00319123
-0.0028499
-0.00352696
-0.00363044
-0.00419301
-0.00514146
-0.00528188
-0.00553285
-0.00592117
-0.00638476
-0.00658867
-0.00668734
-0.00664281
-0.00638924
-0.00597157
-0.00548192
-0.00496619
-0.00452024
-0.000141819
-0.00237731
-0.00318118
-0.00284749
-0.00352794
-0.00363725
-0.00419375
-0.00514398
-0.00528629
-0.00552586
-0.00592892
-0.00638601
-0.0066083
-0.00670979
-0.00669356
-0.00647706
-0.00611423
-0.00570165
-0.00526415
-0.00486753
-0.000151688
-0.0023761
-0.0031715
-0.00284386
-0.00352964
-0.00364335
-0.00419567
-0.00514539
-0.00529175
-0.00551808
-0.00593609
-0.00638893
-0.00662852
-0.00673692
-0.00675017
-0.00657732
-0.0062708
-0.00593304
-0.00556943
-0.00521497
-0.000162146
-0.00237358
-0.00316285
-0.00283882
-0.00353212
-0.00364876
-0.00419876
-0.00514595
-0.00529756
-0.00551041
-0.00594211
-0.00639375
-0.00664951
-0.00676794
-0.00681296
-0.00669071
-0.00644353
-0.0061774
-0.0058825
-0.00556481
-0.000173361
-0.00236937
-0.00315517
-0.00283221
-0.00353545
-0.0036536
-0.00420273
-0.00514616
-0.00530269
-0.005504
-0.00594653
-0.00640025
-0.0066719
-0.00680296
-0.0068813
-0.00681666
-0.00663408
-0.00643733
-0.00620822
-0.00592078
-0.000185523
-0.00236301
-0.00314864
-0.00282389
-0.00353956
-0.00365824
-0.00420689
-0.00514677
-0.005307
-0.00549951
-0.00594939
-0.00640732
-0.00669608
-0.00684292
-0.00695334
-0.00694965
-0.00683575
-0.00671462
-0.00656306
-0.00629162
-0.000198971
-0.00235394
-0.00314344
-0.00281386
-0.00354427
-0.00366312
-0.00421052
-0.00514867
-0.00530843
-0.00549676
-0.00595169
-0.00641405
-0.00672133
-0.00688699
-0.00703042
-0.00708765
-0.00704635
-0.00699721
-0.00692046
-0.00671088
-0.000214001
-0.00234161
-0.00313961
-0.00280226
-0.00354919
-0.0036675
-0.00421436
-0.00515277
-0.00530782
-0.00549464
-0.00595471
-0.00642084
-0.00674804
-0.00693223
-0.00711451
-0.00724399
-0.00727423
-0.0072908
-0.00728523
-0.00713254
-0.000230938
-0.00232552
-0.00313698
-0.00278945
-0.00355362
-0.00367267
-0.00421355
-0.0051593
-0.00530563
-0.00549189
-0.00596007
-0.0064271
-0.00678012
-0.00699815
-0.00721124
-0.00740796
-0.00751459
-0.00759647
-0.00765511
-0.0075483
-0.000250238
-0.00230511
-0.00313524
-0.00277592
-0.00355662
-0.00368302
-0.0042095
-0.00516787
-0.00530354
-0.00548813
-0.00596957
-0.0064373
-0.00682081
-0.00707552
-0.00731508
-0.0075734
-0.00776312
-0.00791395
-0.00802831
-0.00795811
-0.000272232
-0.00227992
-0.00313381
-0.00276249
-0.00355715
-0.00369787
-0.00420192
-0.00517763
-0.00530386
-0.00548354
-0.00598569
-0.0064554
-0.00686513
-0.00716104
-0.00742808
-0.00773968
-0.00801613
-0.0082417
-0.00840631
-0.0083614
-0.000297205
-0.00224962
-0.00313171
-0.00275007
-0.00355449
-0.00371721
-0.00419157
-0.00518829
-0.00530864
-0.00547942
-0.00600961
-0.00648156
-0.00690785
-0.00725268
-0.00755299
-0.00790842
-0.00826938
-0.00857583
-0.00878845
-0.0087588
-0.000325361
-0.00221403
-0.00312778
-0.00273935
-0.00354816
-0.00374061
-0.00418194
-0.00520022
-0.00532136
-0.0054772
-0.00603848
-0.00651399
-0.0069478
-0.00734786
-0.00769146
-0.0080832
-0.00851983
-0.0089112
-0.00917285
-0.00915175
-0.000356626
-0.00217314
-0.00312083
-0.00273069
-0.00353798
-0.00376853
-0.00417423
-0.00521442
-0.00534673
-0.00547522
-0.00606667
-0.00655281
-0.00698686
-0.00744305
-0.00784261
-0.0082679
-0.00876654
-0.00924232
-0.00955732
-0.00954211
-0.000390931
-0.00212047
-0.00310959
-0.00272404
-0.00352425
-0.00380138
-0.00417053
-0.00523131
-0.00538266
-0.00547111
-0.00609058
-0.00660008
-0.00702853
-0.00753482
-0.00800263
-0.00846512
-0.00901143
-0.00956497
-0.00993851
-0.00993079
-0.000428359
-0.00207317
-0.00309284
-0.00271886
-0.00350765
-0.00384027
-0.00417388
-0.00524979
-0.00542663
-0.00546657
-0.00610832
-0.0066561
-0.00707665
-0.00762155
-0.00816661
-0.00867542
-0.00925882
-0.00987763
-0.0103121
-0.0103167
-0.0004687
-0.00202397
-0.00306995
-0.00271449
-0.0034892
-0.00388649
-0.00418565
-0.00526607
-0.00547756
-0.0054645
-0.00611838
-0.00671912
-0.00713501
-0.00770397
-0.00832961
-0.00889734
-0.00951279
-0.0101813
-0.0106739
-0.0106968
-0.00051141
-0.00197373
-0.00304116
-0.0027109
-0.00346968
-0.00393972
-0.00420624
-0.00527771
-0.00553442
-0.00546904
-0.00611987
-0.00678582
-0.00720672
-0.00778488
-0.00848737
-0.00912735
-0.00977576
-0.0104785
-0.0110206
-0.0110669
-0.000555726
-0.00192322
-0.0030076
-0.00270877
-0.00344908
-0.00399829
-0.00423665
-0.00528365
-0.00559564
-0.00548404
-0.00611364
-0.0068519
-0.00729306
-0.00786855
-0.00863693
-0.00935988
-0.0100476
-0.010772
-0.0113512
-0.0114229
-0.000600842
-0.00187313
-0.00297073
-0.00270895
-0.00342695
-0.0040598
-0.00427789
-0.00528448
-0.00565903
-0.00551209
-0.00610195
-0.00691247
-0.00739318
-0.00796017
-0.00877758
-0.00958848
-0.0103256
-0.0110642
-0.0116665
-0.0117615
-0.000646163
-0.0018241
-0.00293174
-0.00271274
-0.00340334
-0.00412112
-0.00433062
-0.00528175
-0.00572123
-0.00555449
-0.00608871
-0.0069633
-0.007504
-0.00806428
-0.00891142
-0.00980774
-0.0106046
-0.0113563
-0.0119686
-0.0120811
-0.000691145
-0.00177616
-0.00289172
-0.00272242
-0.00337925
-0.00417918
-0.00439475
-0.00527762
-0.00577782
-0.00561099
-0.00607911
-0.00700226
-0.00762035
-0.00818287
-0.00904239
-0.0100142
-0.010879
-0.0116483
-0.0122606
-0.0123814
-0.000735245
-0.00172895
-0.00285152
-0.00274043
-0.00335606
-0.00423141
-0.00446889
-0.00527398
-0.00582523
-0.00567966
-0.00607855
-0.00702982
-0.00773572
-0.00831488
-0.00917478
-0.0102067
-0.0111436
-0.0119383
-0.012545
-0.0126637
-0.000778007
-0.0016819
-0.00281161
-0.00276982
-0.00332882
-0.00427486
-0.00455022
-0.00527352
-0.00586188
-0.00575732
-0.00609104
-0.0070486
-0.00784446
-0.00845725
-0.0093122
-0.0103864
-0.0113943
-0.012223
-0.0128227
-0.0129295
-0.00081902
-0.00163472
-0.00277216
-0.0028135
-0.00331997
-0.00430673
-0.00463499
-0.00527901
-0.0058875
-0.00583934
-0.0061182
-0.00706237
-0.00794284
-0.0086055
-0.00945631
-0.010556
-0.0116283
-0.0124981
-0.0130935
-0.0131807
-0.00085782
-0.00158788
-0.00273366
-0.00287337
-0.00332321
-0.00432651
-0.0047199
-0.00529291
-0.00590317
-0.0059201
-0.00615947
-0.00707515
-0.00802886
-0.00875426
-0.00960663
-0.0107179
-0.0118441
-0.0127591
-0.0133553
-0.0134188
-0.000894719
-0.00154324
-0.00269593
-0.00294598
-0.00334034
-0.00433577
-0.00480247
-0.00531765
-0.00591176
-0.00599477
-0.00621289
-0.00709055
-0.00810203
-0.00889807
-0.00976088
-0.0108742
-0.0120413
-0.0130021
-0.0136055
-0.0136447
-0.000931913
-0.00150502
-0.00265616
-0.00302259
-0.00337297
-0.00433726
-0.00487943
-0.00535465
-0.00591694
-0.00606008
-0.00627503
-0.00711124
-0.00816327
-0.00903203
-0.00991528
-0.011026
-0.0122211
-0.0132249
-0.0138418
-0.0138588
-0.000970121
-0.00147571
-0.00261387
-0.00309911
-0.00342221
-0.00433522
-0.00494734
-0.00540313
-0.00592327
-0.0061143
-0.00634114
-0.00713847
-0.00821429
-0.00915201
-0.0100647
-0.0111723
-0.0123847
-0.0134266
-0.0140616
-0.0140606
-0.00100832
-0.00145351
-0.00257427
-0.00317801
-0.00348828
-0.00433426
-0.00500403
-0.00546003
-0.00593525
-0.00615797
-0.00640563
-0.00717134
-0.0082573
-0.00925537
-0.0102033
-0.0113103
-0.0125326
-0.0136064
-0.0142628
-0.0142492
-0.00104743
-0.00144106
-0.00253639
-0.00325361
-0.00357052
-0.00433917
-0.00504838
-0.00552029
-0.00595514
-0.00619359
-0.00646382
-0.00720669
-0.00829423
-0.00934195
-0.0103266
-0.0114363
-0.0126634
-0.0137636
-0.0144434
-0.0144234
-0.00109056
-0.00144029
-0.00249976
-0.00332064
-0.00366736
-0.00435445
-0.00508128
-0.00557961
-0.00598317
-0.00622441
-0.00651312
-0.00723991
-0.00832502
-0.00941268
-0.0104324
-0.0115463
-0.0127737
-0.0138949
-0.0146
-0.0145812
-0.00113819
-0.00145145
-0.00246589
-0.00337981
-0.00377636
-0.00438399
-0.00510496
-0.00563426
-0.00601823
-0.00625302
-0.00655205
-0.00726575
-0.00834693
-0.00946763
-0.01052
-0.0116376
-0.0128602
-0.0139962
-0.0147275
-0.0147187
-0.00118849
-0.0014749
-0.00244314
-0.00343224
-0.00389355
-0.00442988
-0.00512213
-0.00568004
-0.00605799
-0.00628137
-0.00657974
-0.00727925
-0.00835526
-0.00950447
-0.0105884
-0.0117089
-0.012921
-0.0140641
-0.0148202
-0.0148298
-0.00124185
-0.00151144
-0.00243414
-0.00347893
-0.00401481
-0.00449357
-0.00513742
-0.00571438
-0.00609864
-0.00631083
-0.00659676
-0.00727635
-0.00834445
-0.00951851
-0.0106338
-0.0117577
-0.0129549
-0.0140957
-0.0148732
-0.014907
-0.00130077
-0.00156188
-0.00243996
-0.00352148
-0.00413675
-0.00457521
-0.00515642
-0.00573681
-0.0061349
-0.00634077
-0.00660543
-0.00725506
-0.00830929
-0.00950371
-0.0106501
-0.0117804
-0.0129611
-0.0140908
-0.0148827
-0.0149425
-0.00136746
-0.00162553
-0.00246282
-0.00356267
-0.00425668
-0.00467333
-0.00518374
-0.0057486
-0.0061612
-0.00636817
-0.00660783
-0.00721568
-0.00824537
-0.00945311
-0.0106295
-0.0117704
-0.0129359
-0.0140487
-0.014846
-0.0149311
-0.00144403
-0.00170256
-0.00250383
-0.00360626
-0.00437339
-0.00478552
-0.00522259
-0.00575211
-0.00617366
-0.00638829
-0.00660386
-0.00715968
-0.00814977
-0.00935967
-0.0105634
-0.0117187
-0.012872
-0.0139666
-0.0147628
-0.0148697
-0.00153217
-0.00179544
-0.0025639
-0.00365602
-0.00448643
-0.00490855
-0.00527517
-0.00575124
-0.00617101
-0.00639622
-0.00659087
-0.00708766
-0.00802108
-0.00921688
-0.0104417
-0.0116145
-0.0127611
-0.0138379
-0.0146293
-0.0147544
-0.00163367
-0.00190228
-0.00264652
-0.00371623
-0.00459598
-0.00503969
-0.00534322
-0.0057506
-0.0061532
-0.0063868
-0.00656345
-0.00699703
-0.0078577
-0.00901987
-0.0102543
-0.0114453
-0.012591
-0.0136532
-0.0144385
-0.0145808
-0.00175141
-0.00202591
-0.00275121
-0.00379084
-0.00470382
-0.00517654
-0.00542762
-0.00575447
-0.00612131
-0.00635567
-0.0065157
-0.00688373
-0.00765728
-0.00876404
-0.00999101
-0.0111958
-0.0123456
-0.0133984
-0.0141792
-0.0143355
-0.00188856
-0.00216744
-0.00287865
-0.00388404
-0.00481318
-0.00531694
-0.00552824
-0.00576779
-0.00607854
-0.00630077
-0.00644207
-0.00674252
-0.00741572
-0.00844271
-0.00963886
-0.0108463
-0.0120022
-0.013052
-0.0138261
-0.0139973
-0.00204763
-0.0023286
-0.00302951
-0.00399957
-0.00492786
-0.00545975
-0.00564402
-0.00579642
-0.00603147
-0.00622323
-0.0063383
-0.00656719
-0.00712648
-0.00804697
-0.00918114
-0.0103703
-0.0115254
-0.0125714
-0.0133499
-0.0135466
-0.00223051
-0.00250988
-0.00320667
-0.00414024
-0.00505154
-0.00560399
-0.00577356
-0.00584634
-0.00599156
-0.00613062
-0.00620434
-0.0063519
-0.00678174
-0.00756379
-0.00859563
-0.0097318
-0.0108685
-0.0119164
-0.0127134
-0.0129537
-0.0024422
-0.00271503
-0.00340935
-0.00430527
-0.0051877
-0.00575083
-0.00591426
-0.00591996
-0.00597218
-0.00604016
-0.00604856
-0.00609503
-0.00636946
-0.00697269
-0.0078531
-0.00888824
-0.00997799
-0.0110234
-0.0118569
-0.0121732
-0.00269894
-0.00295056
-0.0036301
-0.00448858
-0.00533997
-0.00590272
-0.00606386
-0.00601529
-0.0059802
-0.0059721
-0.00589839
-0.00580998
-0.00588123
-0.00624437
-0.00690613
-0.00777154
-0.00876071
-0.0097863
-0.0106816
-0.0111338
-0.00300461
-0.00325416
-0.00385978
-0.00468883
-0.00551364
-0.00605993
-0.00621691
-0.00612944
-0.00601672
-0.00593461
-0.00579949
-0.00556138
-0.00535187
-0.00535761
-0.00565046
-0.00622316
-0.00701475
-0.00797133
-0.00897179
-0.00968543
-0.00332641
-0.00355512
-0.0041645
-0.00495479
-0.0057128
-0.0062207
-0.00636719
-0.00625983
-0.00608527
-0.00592811
-0.00576852
-0.00546753
-0.00499183
-0.00442477
-0.00397491
-0.00383932
-0.00411551
-0.00476897
-0.00567305
-0.0066142
-0.0036814
-0.00389814
-0.00452844
-0.00527616
-0.00593622
-0.00637986
-0.00651048
-0.0064041
-0.00619652
-0.00594814
-0.00567944
-0.00551792
-0.00526723
-0.00441949
-0.00315341
-0.00209082
-0.00148782
-0.00117676
-0.000909597
-0.000696344
-0.00412569
-0.00430832
-0.00491229
-0.00560087
-0.00616531
-0.00652734
-0.00664023
-0.00653163
-0.0063448
-0.00608543
-0.00528381
-0.00404589
-0.00281971
-0.00181824
-0.0010332
-0.000313877
0.000451775
0.00124139
0.00188492
0.00205492
-0.0046738
-0.00479747
-0.00531269
-0.00591
-0.00638061
-0.00664521
-0.0067214
-0.00656114
-0.00581063
-0.00474561
-0.00371757
-0.00284262
-0.00208438
-0.00133318
-0.000476012
0.00049733
0.00153547
0.00251407
0.00321203
0.00328703
-0.00532105
-0.00540429
-0.00573052
-0.00614183
-0.00652132
-0.00668808
-0.0062943
-0.00554569
-0.00472887
-0.00400014
-0.00336543
-0.00269614
-0.00187725
-0.000883783
0.000235229
0.00142503
0.00260267
0.00363666
0.00431415
0.00429676
-0.00605921
-0.00615028
-0.00625938
-0.00621297
-0.00607097
-0.00585209
-0.00549786
-0.00503175
-0.00450761
-0.00391538
-0.00322536
-0.00239202
-0.00138855
-0.00023959
0.00100273
0.0022769
0.00350053
0.00453749
0.0051667
0.00506181
-0.00683083
-0.00686002
-0.00649503
-0.00605303
-0.00567398
-0.00538081
-0.00512092
-0.0047837
-0.00430493
-0.00366408
-0.00286303
-0.00191555
-0.000833753
0.00036696
0.00165237
0.00295717
0.00418363
0.00519083
0.00576455
0.00558452
-0.00744867
-0.00731663
-0.00675213
-0.00606639
-0.00549436
-0.00509563
-0.00478929
-0.004446
-0.00395597
-0.0032889
-0.00245542
-0.00147306
-0.000360135
0.000864126
0.00216162
0.00346732
0.00468335
0.0056655
0.00619825
0.00596313
-0.00792891
-0.00770768
-0.00702684
-0.00617198
-0.00541487
-0.00486374
-0.00446355
-0.00407631
-0.00358458
-0.00292927
-0.00209917
-0.00110943
2.01343e-05
0.00125937
0.00256448
0.00386925
0.0050752
0.00603675
0.00653762
0.0062607
-0.00833607
-0.00805191
-0.00726042
-0.00627177
-0.00536442
-0.00467647
-0.00417875
-0.00374631
-0.00325074
-0.0026078
-0.00178768
-0.000796403
0.00034125
0.00158896
0.0028979
0.00419941
0.00539426
0.00633677
0.00681109
0.00650155
-0.00866421
-0.00832668
-0.00745698
-0.0063629
-0.00533721
-0.00453896
-0.00395737
-0.00347851
-0.00296859
-0.00233201
-0.00152352
-0.000538853
0.000599785
0.00185148
0.00316149
0.00445832
0.00564238
0.00656862
0.00702224
0.00668893
-0.00890936
-0.00853917
-0.00761097
-0.00644363
-0.00533716
-0.00445891
-0.00381021
-0.00328455
-0.00274793
-0.00209852
-0.00128611
-0.00030242
0.000832036
0.00207851
0.00338265
0.00467096
0.00584376
0.00675623
0.00719432
0.00684414
-0.00906041
-0.00867877
-0.00772625
-0.00652396
-0.00537627
-0.00445562
-0.00376553
-0.00320347
-0.00263933
-0.00197003
-0.00113892
-0.000137063
0.00101171
0.0022642
0.00356445
0.00484198
0.00600473
0.00690718
0.00733785
0.00698269
0.00664818
0.00167653
-0.00561369
-0.0107527
-0.0118135
-0.010525
-0.00898829
-0.00793168
-0.00733985
-0.0070487
-0.00693568
-0.00693003
-0.00698886
-0.00708451
-0.00719951
-0.00732154
-0.00744079
-0.00755108
-0.00765008
-0.00773759
-0.00781538
-0.00788777
-0.00795939
-0.00803249
-0.00810653
-0.00818047
-0.00825472
-0.00833145
-0.00841241
-0.00849706
-0.00858296
-0.0086685
-0.0087539
-0.00883981
-0.00892563
-0.00901012
-0.00909238
-0.00917224
-0.00924954
-0.00932432
-0.00939693
-0.00946784
-0.00953704
-0.00960418
-0.00966905
-0.00973219
-0.0097942
-0.00985536
-0.00991552
-0.0099744
-0.0100321
-0.0100887
-0.0101445
-0.0101996
-0.0102541
-0.0103079
-0.0103612
-0.010414
-0.0104663
-0.0105181
-0.0105694
-0.01062
-0.0106702
-0.0107198
-0.0107689
-0.0108173
-0.0108648
-0.0109115
-0.0109577
-0.0110033
-0.0110484
-0.0110929
-0.0111366
-0.0111801
-0.0112232
-0.0112659
-0.0113082
-0.0113501
-0.011392
-0.0114339
-0.0114757
-0.0115172
-0.0115586
-0.0116001
-0.0116419
-0.0116838
-0.0117257
-0.0117674
-0.0118092
-0.0118511
-0.0118931
-0.0119351
-0.0119769
-0.0120186
-0.0120603
-0.0121019
-0.0121435
-0.0121849
-0.0122264
-0.0122676
-0.0123088
-0.0123499
-0.0123909
-0.0124319
-0.0124726
-0.012513
-0.0125532
-0.0125933
-0.012633
-0.0126728
-0.0127121
-0.0127516
-0.0127908
-0.01283
-0.012869
-0.0129081
-0.0129471
-0.0129861
-0.0130248
-0.0130632
-0.0131017
-0.0131399
-0.0131782
-0.013216
-0.013254
-0.0132916
-0.0133295
-0.0133669
-0.0134045
-0.0134418
-0.0134789
-0.013516
-0.0135527
-0.0135896
-0.013626
-0.0136628
-0.0136991
-0.0137358
-0.0137722
-0.0138087
-0.013845
-0.0138808
-0.0139168
-0.0139523
-0.0139885
-0.0140237
-0.0140595
-0.0140945
-0.0141303
-0.0141653
-0.0142001
-0.0142349
-0.0142693
-0.0143043
-0.014338
-0.0143731
-0.0144067
-0.0144414
-0.0144751
-0.0145088
-0.0145422
-0.0145748
-0.0146088
-0.0146409
-0.0146747
-0.0147065
-0.0147399
-0.0147719
-0.0148039
-0.0148364
-0.0148675
-0.0149005
-0.0149308
-0.0149634
-0.0149937
-0.0150249
-0.0150557
-0.0150846
-0.0151161
-0.0151437
-0.0151748
-0.015202
-0.0152307
-0.0152591
-0.0152847
-0.015314
-0.0153375
-0.015366
-0.015389
-0.0154139
-0.0154378
-0.0154586
-0.0154827
-0.0154998
-0.0155209
-0.0155389
-0.0155523
-0.0155742
-0.0155812
-0.0156002
0.00591042
0.00149425
-0.00553841
-0.0106158
-0.0117304
-0.0104857
-0.00896368
-0.00791409
-0.00732702
-0.00703886
-0.0069277
-0.0069233
-0.00698304
-0.00707939
-0.00719495
-0.00731746
-0.00743711
-0.00754776
-0.00764706
-0.00773483
-0.00781284
-0.00788542
-0.00795721
-0.00803045
-0.00810463
-0.00817868
-0.00825304
-0.00832986
-0.0084109
-0.00849563
-0.0085816
-0.00866721
-0.00875267
-0.00883865
-0.00892452
-0.00900906
-0.00909137
-0.00917128
-0.00924862
-0.00932344
-0.00939609
-0.00946703
-0.00953627
-0.00960344
-0.00966835
-0.00973151
-0.00979354
-0.00985473
-0.00991492
-0.00997382
-0.0100315
-0.0100882
-0.010144
-0.0101991
-0.0102536
-0.0103074
-0.0103607
-0.0104135
-0.0104658
-0.0105177
-0.010569
-0.0106196
-0.0106698
-0.0107194
-0.0107685
-0.0108169
-0.0108645
-0.0109112
-0.0109574
-0.011003
-0.0110481
-0.0110926
-0.0111364
-0.0111798
-0.0112229
-0.0112657
-0.0113079
-0.0113499
-0.0113917
-0.0114337
-0.0114754
-0.011517
-0.0115584
-0.0115999
-0.0116417
-0.0116836
-0.0117255
-0.0117672
-0.011809
-0.0118509
-0.011893
-0.0119349
-0.0119768
-0.0120184
-0.0120602
-0.0121017
-0.0121433
-0.0121848
-0.0122262
-0.0122675
-0.0123087
-0.0123497
-0.0123908
-0.0124317
-0.0124724
-0.0125129
-0.0125531
-0.0125932
-0.0126329
-0.0126726
-0.012712
-0.0127515
-0.0127907
-0.0128299
-0.0128689
-0.012908
-0.012947
-0.012986
-0.0130247
-0.0130631
-0.0131016
-0.0131398
-0.0131781
-0.0132159
-0.0132539
-0.0132915
-0.0133294
-0.0133669
-0.0134045
-0.0134417
-0.0134789
-0.0135159
-0.0135527
-0.0135895
-0.0136259
-0.0136627
-0.013699
-0.0137358
-0.0137721
-0.0138087
-0.0138449
-0.0138807
-0.0139167
-0.0139523
-0.0139885
-0.0140236
-0.0140594
-0.0140945
-0.0141303
-0.0141652
-0.0142001
-0.0142349
-0.0142692
-0.0143042
-0.014338
-0.014373
-0.0144066
-0.0144414
-0.014475
-0.0145088
-0.0145421
-0.0145748
-0.0146088
-0.0146409
-0.0146746
-0.0147064
-0.0147399
-0.0147718
-0.0148039
-0.0148363
-0.0148675
-0.0149005
-0.0149308
-0.0149633
-0.0149937
-0.0150249
-0.0150557
-0.0150846
-0.015116
-0.0151437
-0.0151748
-0.0152019
-0.0152307
-0.0152591
-0.0152847
-0.015314
-0.0153375
-0.0153659
-0.015389
-0.0154139
-0.0154378
-0.0154585
-0.0154827
-0.0154998
-0.0155209
-0.0155389
-0.0155522
-0.0155742
-0.0155811
-0.0156002
0.00513792
0.00131183
-0.00537123
-0.0103578
-0.0115797
-0.0104264
-0.00893267
-0.00789037
-0.00730822
-0.00702436
-0.00691644
-0.00691433
-0.0069757
-0.00707321
-0.00718964
-0.00731281
-0.00743298
-0.00754406
-0.00764373
-0.00773183
-0.00781012
-0.00788293
-0.00795492
-0.00802834
-0.00810266
-0.00817685
-0.00825132
-0.00832824
-0.00840938
-0.00849419
-0.00858024
-0.00866592
-0.00875145
-0.00883749
-0.00892342
-0.00900802
-0.00909038
-0.00917033
-0.00924772
-0.00932258
-0.00939527
-0.00946624
-0.00953551
-0.00960271
-0.00966765
-0.00973084
-0.0097929
-0.00985412
-0.00991433
-0.00997325
-0.0100309
-0.0100876
-0.0101435
-0.0101986
-0.0102531
-0.010307
-0.0103603
-0.0104131
-0.0104654
-0.0105173
-0.0105686
-0.0106193
-0.0106694
-0.010719
-0.0107682
-0.0108166
-0.0108642
-0.0109109
-0.0109571
-0.0110027
-0.0110479
-0.0110923
-0.0111361
-0.0111795
-0.0112227
-0.0112654
-0.0113077
-0.0113497
-0.0113915
-0.0114334
-0.0114752
-0.0115168
-0.0115581
-0.0115997
-0.0116415
-0.0116834
-0.0117253
-0.011767
-0.0118088
-0.0118507
-0.0118928
-0.0119347
-0.0119766
-0.0120183
-0.01206
-0.0121015
-0.0121432
-0.0121846
-0.0122261
-0.0122673
-0.0123085
-0.0123496
-0.0123907
-0.0124316
-0.0124723
-0.0125128
-0.012553
-0.0125931
-0.0126328
-0.0126725
-0.0127119
-0.0127514
-0.0127906
-0.0128298
-0.0128688
-0.0129079
-0.0129469
-0.0129859
-0.0130246
-0.013063
-0.0131015
-0.0131397
-0.013178
-0.0132158
-0.0132538
-0.0132914
-0.0133293
-0.0133668
-0.0134044
-0.0134416
-0.0134788
-0.0135159
-0.0135526
-0.0135895
-0.0136259
-0.0136627
-0.013699
-0.0137357
-0.013772
-0.0138086
-0.0138449
-0.0138807
-0.0139167
-0.0139522
-0.0139884
-0.0140236
-0.0140594
-0.0140944
-0.0141302
-0.0141652
-0.0142
-0.0142348
-0.0142692
-0.0143042
-0.014338
-0.014373
-0.0144066
-0.0144413
-0.014475
-0.0145087
-0.0145421
-0.0145747
-0.0146087
-0.0146408
-0.0146746
-0.0147064
-0.0147399
-0.0147718
-0.0148038
-0.0148363
-0.0148675
-0.0149005
-0.0149308
-0.0149633
-0.0149936
-0.0150249
-0.0150556
-0.0150845
-0.015116
-0.0151437
-0.0151747
-0.0152019
-0.0152307
-0.0152591
-0.0152846
-0.015314
-0.0153375
-0.0153659
-0.015389
-0.0154138
-0.0154377
-0.0154585
-0.0154827
-0.0154998
-0.0155209
-0.0155389
-0.0155522
-0.0155742
-0.0155811
-0.0156001
0.00440337
0.00114925
-0.00513763
-0.0100178
-0.0113707
-0.0103426
-0.00888918
-0.00785541
-0.00727947
-0.00700232
-0.0068999
-0.00690166
-0.00696564
-0.00706495
-0.00718265
-0.00730675
-0.00742763
-0.00753928
-0.00763943
-0.00772798
-0.0078067
-0.00787988
-0.00795217
-0.00802583
-0.00810036
-0.00817474
-0.00824938
-0.00832645
-0.0084077
-0.00849261
-0.00857876
-0.00866452
-0.00875013
-0.00883625
-0.00892224
-0.0090069
-0.00908931
-0.00916932
-0.00924676
-0.00932167
-0.0093944
-0.00946542
-0.00953472
-0.00960195
-0.00966692
-0.00973014
-0.00979224
-0.00985348
-0.00991371
-0.00997266
-0.0100304
-0.0100871
-0.010143
-0.0101981
-0.0102526
-0.0103065
-0.0103598
-0.0104127
-0.010465
-0.0105169
-0.0105682
-0.0106189
-0.010669
-0.0107187
-0.0107678
-0.0108163
-0.0108638
-0.0109106
-0.0109568
-0.0110024
-0.0110476
-0.011092
-0.0111358
-0.0111793
-0.0112224
-0.0112652
-0.0113074
-0.0113494
-0.0113913
-0.0114332
-0.011475
-0.0115166
-0.0115579
-0.0115995
-0.0116413
-0.0116832
-0.0117251
-0.0117668
-0.0118086
-0.0118505
-0.0118926
-0.0119345
-0.0119764
-0.0120181
-0.0120598
-0.0121014
-0.012143
-0.0121845
-0.012226
-0.0122672
-0.0123084
-0.0123495
-0.0123906
-0.0124315
-0.0124722
-0.0125127
-0.0125528
-0.012593
-0.0126327
-0.0126724
-0.0127118
-0.0127513
-0.0127905
-0.0128297
-0.0128687
-0.0129078
-0.0129468
-0.0129858
-0.0130245
-0.0130629
-0.0131014
-0.0131396
-0.0131779
-0.0132157
-0.0132538
-0.0132913
-0.0133292
-0.0133667
-0.0134043
-0.0134416
-0.0134787
-0.0135158
-0.0135525
-0.0135894
-0.0136258
-0.0136626
-0.0136989
-0.0137356
-0.013772
-0.0138085
-0.0138448
-0.0138806
-0.0139166
-0.0139522
-0.0139884
-0.0140235
-0.0140593
-0.0140944
-0.0141302
-0.0141651
-0.0142
-0.0142348
-0.0142691
-0.0143041
-0.0143379
-0.0143729
-0.0144065
-0.0144413
-0.0144749
-0.0145087
-0.0145421
-0.0145747
-0.0146087
-0.0146408
-0.0146746
-0.0147064
-0.0147398
-0.0147718
-0.0148038
-0.0148363
-0.0148674
-0.0149004
-0.0149307
-0.0149633
-0.0149936
-0.0150248
-0.0150556
-0.0150845
-0.015116
-0.0151436
-0.0151747
-0.0152019
-0.0152306
-0.015259
-0.0152846
-0.015314
-0.0153374
-0.0153659
-0.015389
-0.0154138
-0.0154377
-0.0154585
-0.0154826
-0.0154998
-0.0155208
-0.0155388
-0.0155522
-0.0155742
-0.0155811
-0.0156001
0.003698
0.00097664
-0.00488607
-0.00964899
-0.0111366
-0.0102474
-0.00883963
-0.00781233
-0.00724151
-0.0069722
-0.00687699
-0.00688404
-0.00695164
-0.00705347
-0.00717296
-0.00729836
-0.00742021
-0.00753261
-0.00763341
-0.00772258
-0.00780192
-0.00787569
-0.00794845
-0.00802248
-0.0080973
-0.00817196
-0.00824687
-0.00832418
-0.00840561
-0.00849065
-0.00857691
-0.00866279
-0.00874851
-0.00883473
-0.00892082
-0.00900554
-0.00908802
-0.00916809
-0.0092456
-0.00932058
-0.00939337
-0.00946444
-0.00953378
-0.00960106
-0.00966607
-0.00972933
-0.00979146
-0.00985273
-0.009913
-0.00997197
-0.0100297
-0.0100865
-0.0101424
-0.0101975
-0.0102521
-0.010306
-0.0103593
-0.0104122
-0.0104645
-0.0105164
-0.0105677
-0.0106185
-0.0106686
-0.0107183
-0.0107674
-0.0108159
-0.0108635
-0.0109102
-0.0109564
-0.0110021
-0.0110472
-0.0110917
-0.0111355
-0.011179
-0.0112221
-0.0112649
-0.0113072
-0.0113492
-0.011391
-0.011433
-0.0114747
-0.0115163
-0.0115577
-0.0115993
-0.011641
-0.011683
-0.0117249
-0.0117666
-0.0118084
-0.0118503
-0.0118924
-0.0119344
-0.0119763
-0.0120179
-0.0120597
-0.0121012
-0.0121429
-0.0121843
-0.0122258
-0.012267
-0.0123083
-0.0123493
-0.0123904
-0.0124314
-0.012472
-0.0125125
-0.0125527
-0.0125929
-0.0126326
-0.0126723
-0.0127116
-0.0127512
-0.0127903
-0.0128296
-0.0128686
-0.0129077
-0.0129467
-0.0129857
-0.0130244
-0.0130628
-0.0131013