/*--------------------------------*- C++ -*----------------------------------*\
| =========                 |                                                 |
| \\      /  F ield         | OpenFOAM: The Open Source CFD Toolbox           |
|  \\    /   O peration     | Version:  v2012                                 |
|   \\  /    A nd           | Website:  www.openfoam.com                      |
|    \\/     M anipulation  |                                                 |
\*---------------------------------------------------------------------------*/
FoamFile
{
    version     2.0;
    format      ascii;
    class       volVectorField;
    location    "2.85";
    object      U;
}
// * * * * * * * * * * * * * * * * * * * * * * * * * * * * * * * * * * * * * //

dimensions      [0 1 -1 0 0 0 0];


internalField   nonuniform List<vector> 
17600
(
(0.821072 -0.00132844 0)
(1.17686 0.00151322 0)
(0.846838 0.00307255 0)
(1.16124 0.00050079 0)
(0.85184 0.000805616 0)
(1.13301 -0.000864125 0)
(0.859074 0.00132748 0)
(1.11359 -0.00177415 0)
(0.864317 0.00297611 0)
(1.10013 -0.00394206 0)
(0.864098 0.00479226 0)
(1.09196 -0.00465056 0)
(0.85842 0.00473234 0)
(1.0868 -0.00311689 0)
(0.852777 0.00364564 0)
(1.08271 -0.00184635 0)
(0.843759 0.00306301 0)
(1.08069 -0.000731997 0)
(0.828043 0.00286223 0)
(1.07909 0.0002302 0)
(0.831925 -0.00140679 0)
(1.16592 0.00150816 0)
(0.859596 0.00299993 0)
(1.14759 0.000678412 0)
(0.867373 0.000848408 0)
(1.11736 -0.000719952 0)
(0.876375 0.00131983 0)
(1.09522 -0.00161475 0)
(0.884086 0.00290865 0)
(1.07776 -0.00368506 0)
(0.887318 0.00464881 0)
(1.0633 -0.00429982 0)
(0.88866 0.00455948 0)
(1.0485 -0.00282707 0)
(0.896567 0.00357377 0)
(1.02982 -0.00169611 0)
(0.909458 0.00328891 0)
(1.00456 -0.000921225 0)
(0.927657 0.00403393 0)
(0.965781 -0.000345954 0)
(0.853193 -0.0014832 0)
(1.14296 0.00147985 0)
(0.883699 0.00296772 0)
(1.12236 0.00080376 0)
(0.89544 0.000938981 0)
(1.09005 -0.000613919 0)
(0.906328 0.001378 0)
(1.06541 -0.00151559 0)
(0.916416 0.00293193 0)
(1.04561 -0.00352355 0)
(0.922757 0.00463372 0)
(1.02829 -0.00410924 0)
(0.929012 0.00455314 0)
(1.01045 -0.00275355 0)
(0.941554 0.0036827 0)
(0.992115 -0.00171767 0)
(0.953814 0.00353681 0)
(0.975149 -0.000968709 0)
(0.961366 0.0044513 0)
(0.959443 0.000582479 0)
(0.882115 -0.00151929 0)
(1.1109 0.00139965 0)
(0.913375 0.00299527 0)
(1.09083 0.000837178 0)
(0.928161 0.00109338 0)
(1.05908 -0.000589076 0)
(0.938669 0.00152135 0)
(1.03537 -0.0015151 0)
(0.947918 0.00305176 0)
(1.01829 -0.00348293 0)
(0.953487 0.00474396 0)
(1.0048 -0.00407108 0)
(0.958578 0.00469277 0)
(0.992379 -0.00280958 0)
(0.966803 0.00386357 0)
(0.982636 -0.00176702 0)
(0.971229 0.00370474 0)
(0.976057 -0.000894432 0)
(0.970443 0.00464167 0)
(0.969477 0.00150518 0)
(0.913852 -0.00150892 0)
(1.07583 0.00127471 0)
(0.941907 0.00305074 0)
(1.05992 0.000798623 0)
(0.957229 0.00128436 0)
(1.03276 -0.000601162 0)
(0.964622 0.00169614 0)
(1.01382 -0.00154165 0)
(0.970178 0.00317293 0)
(1.00281 -0.00345607 0)
(0.97268 0.00483033 0)
(0.995346 -0.00402693 0)
(0.974675 0.00477704 0)
(0.98874 -0.00281503 0)
(0.978537 0.00394141 0)
(0.984279 -0.0017404 0)
(0.979122 0.00375805 0)
(0.980848 -0.000739742 0)
(0.976621 0.00472198 0)
(0.975349 0.00245036 0)
(0.943208 -0.00145809 0)
(1.04441 0.00114044 0)
(0.964528 0.00310074 0)
(1.03528 0.000723857 0)
(0.977972 0.00146234 0)
(1.01549 -0.000606624 0)
(0.981285 0.001845 0)
(1.00279 -0.0015447 0)
(0.982921 0.00323841 0)
(0.997435 -0.00340023 0)
(0.98293 0.00484018 0)
(0.994084 -0.00394147 0)
(0.983023 0.00475886 0)
(0.990398 -0.00275014 0)
(0.98489 0.00390663 0)
(0.987666 -0.00164252 0)
(0.984389 0.00372378 0)
(0.984791 -0.000511127 0)
(0.981644 0.00475928 0)
(0.979743 0.00335374 0)
(0.966494 -0.00138206 0)
(1.02114 0.00103156 0)
(0.979765 0.00312136 0)
(1.01907 0.000642133 0)
(0.990225 0.00159239 0)
(1.00679 -0.000590781 0)
(0.990555 0.00194556 0)
(0.999307 -0.00152038 0)
(0.989846 0.00324989 0)
(0.997402 -0.0033267 0)
(0.98883 0.00479971 0)
(0.995952 -0.00383801 0)
(0.988291 0.00468776 0)
(0.99336 -0.00264536 0)
(0.989471 0.0038105 0)
(0.991108 -0.00147929 0)
(0.988632 0.00361965 0)
(0.988415 -0.000186271 0)
(0.985782 0.00473025 0)
(0.983824 0.00423618 0)
(0.98244 -0.00129993 0)
(1.00698 0.000963297 0)
(0.988829 0.00310558 0)
(1.0102 0.000568514 0)
(0.996463 0.00166797 0)
(1.00362 -0.000562111 0)
(0.995668 0.00200334 0)
(0.999525 -0.00148406 0)
(0.994256 0.00322878 0)
(0.999238 -0.00324865 0)
(0.993162 0.0047355 0)
(0.998581 -0.00372684 0)
(0.992533 0.00459782 0)
(0.996503 -0.00251838 0)
(0.993447 0.00368878 0)
(0.994472 -0.00126423 0)
(0.992432 0.00346457 0)
(0.9919 0.000220455 0)
(0.989548 0.0046412 0)
(0.987668 0.00507342 0)
(0.991886 -0.00122657 0)
(1.00004 0.000930063 0)
(0.993949 0.00306256 0)
(1.00612 0.000506776 0)
(0.999442 0.00170146 0)
(1.003 -0.000535037 0)
(0.998896 0.0020317 0)
(1.0009 -0.00144832 0)
(0.997692 0.00319116 0)
(1.00129 -0.00316931 0)
(0.996851 0.00465481 0)
(1.00106 -0.00360346 0)
(0.996261 0.00448684 0)
(0.9994 -0.00236593 0)
(0.997015 0.00354505 0)
(0.997567 -0.00101149 0)
(0.995874 0.00327643 0)
(0.995106 0.00068825 0)
(0.993 0.00451697 0)
(0.99119 0.00582974 0)
(0.996726 -0.00116798 0)
(0.997462 0.000915595 0)
(0.996978 0.0030071 0)
(1.00451 0.000455447 0)
(1.00096 0.00170947 0)
(1.00315 -0.000518301 0)
(1.0012 0.00204074 0)
(1.00226 -0.00141845 0)
(1.00048 0.00314463 0)
(1.00295 -0.00308866 0)
(0.999926 0.00455822 0)
(1.00303 -0.00346527 0)
(0.999375 0.00434665 0)
(1.00178 -0.00218097 0)
(1 0.00336478 0)
(1.00016 -0.000717634 0)
(0.998773 0.00305918 0)
(0.997823 0.00119563 0)
(0.995944 0.00439409 0)
(0.99422 0.00648266 0)
(0.998874 -0.00112292 0)
(0.996895 0.000904574 0)
(0.998933 0.00295 0)
(1.00398 0.000412159 0)
(1.00185 0.00170479 0)
(1.00336 -0.0005132 0)
(1.00283 0.00203607 0)
(1.00324 -0.00139475 0)
(1.00256 0.00309151 0)
(1.00408 -0.00300545 0)
(1.00223 0.00444521 0)
(1.00441 -0.00331158 0)
(1.00171 0.00417427 0)
(1.00354 -0.00196001 0)
(1.00224 0.00313744 0)
(1.00211 -0.000379705 0)
(1.00097 0.00281678 0)
(0.999903 0.00171617 0)
(0.998224 0.00431032 0)
(0.996614 0.00701588 0)
(0.999701 -0.00108722 0)
(0.996995 0.000888646 0)
(1.00023 0.0028955 0)
(1.00383 0.000374753 0)
(1.0024 0.00169488 0)
(1.00348 -0.000516774 0)
(1.00387 0.00202099 0)
(1.00383 -0.00137506 0)
(1.00393 0.00303167 0)
(1.00477 -0.00291687 0)
(1.00375 0.00431309 0)
(1.00527 -0.00313776 0)
(1.00325 0.00396535 0)
(1.00468 -0.00170233 0)
(1.00374 0.00287132 0)
(1.00342 -2.01228e-05 0)
(1.00246 0.00256199 0)
(1.00134 0.00222233 0)
(0.999838 0.00429565 0)
(0.998363 0.00741618 0)
(0.99998 -0.00105703 0)
(0.997205 0.000865925 0)
(1.00105 0.00284353 0)
(1.00382 0.000341171 0)
(1.00273 0.00168304 0)
(1.00351 -0.000525085 0)
(1.00446 0.00199768 0)
(1.00415 -0.00135637 0)
(1.0047 0.00296413 0)
(1.00515 -0.00281999 0)
(1.00462 0.00415998 0)
(1.00575 -0.00294116 0)
(1.00415 0.00372038 0)
(1.00534 -0.00141398 0)
(1.00463 0.0025788 0)
(1.00421 0.000358604 0)
(1.00338 0.00231859 0)
(1.00226 0.00268215 0)
(1.00091 0.00436658 0)
(0.999578 0.00768829 0)
(1.00007 -0.00102992 0)
(0.997373 0.000837833 0)
(1.00153 0.00279261 0)
(1.00384 0.000309644 0)
(1.0029 0.00167003 0)
(1.00352 -0.000534901 0)
(1.00474 0.00196732 0)
(1.00431 -0.00133563 0)
(1.00507 0.00288739 0)
(1.00534 -0.00271195 0)
(1.00506 0.00398552 0)
(1.00599 -0.00272273 0)
(1.00463 0.00344569 0)
(1.00568 -0.0011033 0)
(1.00513 0.00226825 0)
(1.00464 0.000750939 0)
(1.00393 0.00211927 0)
(1.00282 0.00307013 0)
(1.00161 0.00452293 0)
(1.00042 0.00785497 0)
(1.0001 -0.00100471 0)
(0.99749 0.000806707 0)
(1.00179 0.00274112 0)
(1.00386 0.000279041 0)
(1.00298 0.00165538 0)
(1.00351 -0.000543909 0)
(1.00486 0.00193026 0)
(1.00439 -0.00130997 0)
(1.00522 0.00279933 0)
(1.00544 -0.00258916 0)
(1.00525 0.00378756 0)
(1.0061 -0.00248021 0)
(1.00488 0.00314273 0)
(1.00582 -0.000773777 0)
(1.00541 0.00195092 0)
(1.00486 0.00112538 0)
(1.00426 0.00198764 0)
(1.00318 0.00337851 0)
(1.00209 0.00475258 0)
(1.00105 0.00795018 0)
(1.00012 -0.000981036 0)
(0.997573 0.000774723 0)
(1.00193 0.00268778 0)
(1.00387 0.000248962 0)
(1.00301 0.00163799 0)
(1.00351 -0.000550093 0)
(1.00489 0.00188537 0)
(1.00443 -0.0012758 0)
(1.00526 0.00269674 0)
(1.0055 -0.00244831 0)
(1.00532 0.00356433 0)
(1.00613 -0.00221307 0)
(1.00501 0.00281346 0)
(1.00587 -0.000432646 0)
(1.00558 0.00164267 0)
(1.00497 0.0014609 0)
(1.00447 0.00193379 0)
(1.00344 0.00361359 0)
(1.00246 0.00503231 0)
(1.00154 0.00801018 0)
(1.00013 -0.000958891 0)
(0.997639 0.000743444 0)
(1.00201 0.00263153 0)
(1.00387 0.000220304 0)
(1.00301 0.00161644 0)
(1.0035 -0.00055151 0)
(1.00489 0.00183082 0)
(1.00445 -0.00123057 0)
(1.00525 0.00257812 0)
(1.00553 -0.0022893 0)
(1.00535 0.00331793 0)
(1.00613 -0.00192721 0)
(1.0051 0.00246963 0)
(1.00587 -9.95385e-05 0)
(1.00569 0.00136385 0)
(1.00504 0.00174244 0)
(1.00463 0.00195924 0)
(1.00366 0.00378618 0)
(1.00276 0.0053303 0)
(1.00197 0.00806407 0)
(1.00016 -0.000938352 0)
(0.997696 0.000714095 0)
(1.00205 0.00257129 0)
(1.00385 0.000192399 0)
(1.003 0.00158896 0)
(1.00349 -0.000546546 0)
(1.00488 0.00176504 0)
(1.00446 -0.00117338 0)
(1.00523 0.00244379 0)
(1.00555 -0.00211412 0)
(1.00536 0.00305279 0)
(1.00611 -0.00163071 0)
(1.00517 0.00212601 0)
(1.00584 0.000211345 0)
(1.00579 0.00113263 0)
(1.00509 0.00196288 0)
(1.00476 0.00205757 0)
(1.00388 0.00391063 0)
(1.00304 0.00561769 0)
(1.00237 0.00812814 0)
(1.00018 -0.000919757 0)
(0.997748 0.000688214 0)
(1.00207 0.00250547 0)
(1.00383 0.000165998 0)
(1.00299 0.00155411 0)
(1.00348 -0.000533397 0)
(1.00486 0.00168616 0)
(1.00446 -0.00110246 0)
(1.0052 0.002292 0)
(1.00556 -0.00192243 0)
(1.00537 0.00277103 0)
(1.00608 -0.00133063 0)
(1.00523 0.00179362 0)
(1.00581 0.000494451 0)
(1.00588 0.000960069 0)
(1.00515 0.00212311 0)
(1.00488 0.00221639 0)
(1.00409 0.00400789 0)
(1.00332 0.00587762 0)
(1.00273 0.00820661 0)
(1.0002 -0.00090348 0)
(0.9978 0.000667063 0)
(1.00208 0.00243268 0)
(1.00381 0.000143864 0)
(1.00298 0.00150946 0)
(1.00346 -0.000509739 0)
(1.00484 0.00159281 0)
(1.00446 -0.00101695 0)
(1.00517 0.00212269 0)
(1.00557 -0.00171669 0)
(1.00538 0.00247763 0)
(1.00604 -0.00103564 0)
(1.0053 0.001481 0)
(1.00577 0.000738565 0)
(1.00596 0.000848855 0)
(1.00522 0.00223129 0)
(1.00499 0.0024209 0)
(1.00431 0.00410215 0)
(1.0036 0.00610468 0)
(1.00308 0.00829965 0)
(1.00023 -0.000889702 0)
(0.997851 0.000651532 0)
(1.00209 0.0023516 0)
(1.00378 0.00012699 0)
(1.00297 0.00145284 0)
(1.00344 -0.000474929 0)
(1.00481 0.00148441 0)
(1.00446 -0.000916658 0)
(1.00514 0.0019382 0)
(1.00557 -0.00150414 0)
(1.00539 0.00218349 0)
(1.006 -0.000758551 0)
(1.00537 0.00119898 0)
(1.00574 0.000933782 0)
(1.00603 0.000789467 0)
(1.0053 0.00229596 0)
(1.00511 0.00265099 0)
(1.00453 0.00421461 0)
(1.00389 0.00630382 0)
(1.00342 0.00841158 0)
(1.00026 -0.000878501 0)
(0.997905 0.000642567 0)
(1.0021 0.00226098 0)
(1.00376 0.000116377 0)
(1.00295 0.00138399 0)
(1.00342 -0.000428775 0)
(1.00479 0.00136163 0)
(1.00445 -0.000805167 0)
(1.00511 0.00174703 0)
(1.00557 -0.00129685 0)
(1.00541 0.00190237 0)
(1.00596 -0.000512619 0)
(1.00543 0.000953995 0)
(1.00572 0.00107997 0)
(1.0061 0.000767843 0)
(1.0054 0.0023255 0)
(1.00523 0.00288236 0)
(1.00477 0.00435668 0)
(1.00419 0.00648109 0)
(1.00375 0.0085435 0)
(1.00028 -0.000870622 0)
(0.997961 0.000642514 0)
(1.0021 0.00215806 0)
(1.00373 0.000114375 0)
(1.00293 0.00130021 0)
(1.0034 -0.000369883 0)
(1.00477 0.00122527 0)
(1.00445 -0.000686174 0)
(1.00508 0.00155297 0)
(1.00556 -0.00109628 0)
(1.00542 0.00163543 0)
(1.00591 -0.000297123 0)
(1.0055 0.000741741 0)
(1.00571 0.00118145 0)
(1.00617 0.000770717 0)
(1.00552 0.00233067 0)
(1.00536 0.00309095 0)
(1.00501 0.00452732 0)
(1.0045 0.00663884 0)
(1.00407 0.00869469 0)
(1.0003 -0.000868315 0)
(0.998022 0.000654133 0)
(1.0021 0.00203855 0)
(1.0037 0.000125288 0)
(1.00291 0.00119659 0)
(1.00338 -0.000295819 0)
(1.00474 0.0010731 0)
(1.00444 -0.000558627 0)
(1.00505 0.00135595 0)
(1.00556 -0.000907522 0)
(1.00544 0.00139055 0)
(1.00587 -0.000119062 0)
(1.00556 0.000569902 0)
(1.00571 0.00123542 0)
(1.00624 0.000802929 0)
(1.00566 0.00230901 0)
(1.00552 0.00326447 0)
(1.00526 0.0046974 0)
(1.00483 0.00678133 0)
(1.0044 0.00886921 0)
(1.00031 -0.000865362 0)
(0.998087 0.000667481 0)
(1.00209 0.0019116 0)
(1.00368 0.000134744 0)
(1.00289 0.00109182 0)
(1.00337 -0.000228792 0)
(1.00472 0.000932387 0)
(1.00444 -0.000454151 0)
(1.00502 0.00119698 0)
(1.00555 -0.000777951 0)
(1.00546 0.00121637 0)
(1.00583 -1.40494e-05 0)
(1.00562 0.000474816 0)
(1.00572 0.001214 0)
(1.0063 0.000900705 0)
(1.00582 0.00222403 0)
(1.00569 0.00341189 0)
(1.00552 0.00476243 0)
(1.00517 0.00689314 0)
(1.00473 0.0090315 0)
(1.00032 -0.000868457 0)
(0.998157 0.000698585 0)
(1.00207 0.00176383 0)
(1.00366 0.000158543 0)
(1.00286 0.00096842 0)
(1.00335 -0.000148013 0)
(1.00469 0.00078044 0)
(1.00443 -0.000347634 0)
(1.00498 0.00104069 0)
(1.00554 -0.000653419 0)
(1.00547 0.00103531 0)
(1.0058 9.89648e-05 0)
(1.00567 0.000359831 0)
(1.00574 0.0012081 0)
(1.00635 0.00096423 0)
(1.00599 0.00216317 0)
(1.00587 0.00345944 0)
(1.00579 0.00479082 0)
(1.00554 0.00683786 0)
(1.00509 0.00903531 0)
(1.00033 -0.000878764 0)
(0.99823 0.000748119 0)
(1.00205 0.00159842 0)
(1.00365 0.000188696 0)
(1.00283 0.000834577 0)
(1.00333 -6.70662e-05 0)
(1.00465 0.000633355 0)
(1.00443 -0.000255496 0)
(1.00495 0.000897018 0)
(1.00554 -0.000536068 0)
(1.00549 0.00084441 0)
(1.00576 0.000209246 0)
(1.00572 0.000240367 0)
(1.00578 0.00121646 0)
(1.00641 0.00101982 0)
(1.00616 0.00215606 0)
(1.00607 0.00350912 0)
(1.00607 0.00488267 0)
(1.00591 0.00680866 0)
(1.00549 0.00906214 0)
(1.00032 -0.000885282 0)
(0.998304 0.000799093 0)
(1.00203 0.00142617 0)
(1.00363 0.000211443 0)
(1.0028 0.00070996 0)
(1.00332 -1.50069e-05 0)
(1.00461 0.000523787 0)
(1.00443 -0.000213127 0)
(1.0049 0.000806364 0)
(1.00553 -0.000483524 0)
(1.0055 0.00071994 0)
(1.00573 0.000251626 0)
(1.00576 0.000199017 0)
(1.00583 0.00117293 0)
(1.00647 0.00118711 0)
(1.00634 0.00219778 0)
(1.00628 0.00365771 0)
(1.00635 0.00501907 0)
(1.00629 0.0068965 0)
(1.00591 0.00908546 0)
(1.00032 -0.000901374 0)
(0.998376 0.000868147 0)
(1.002 0.00124007 0)
(1.00362 0.000240135 0)
(1.00276 0.000580312 0)
(1.0033 3.19651e-05 0)
(1.00457 0.00042785 0)
(1.00443 -0.000190044 0)
(1.00486 0.000726558 0)
(1.00552 -0.00042661 0)
(1.00551 0.000594372 0)
(1.0057 0.000331463 0)
(1.0058 0.000214813 0)
(1.00589 0.00119057 0)
(1.00654 0.00141296 0)
(1.00653 0.00234845 0)
(1.00651 0.0038249 0)
(1.00664 0.00520683 0)
(1.00668 0.00698847 0)
(1.00633 0.00910822 0)
(1.00032 -0.000919037 0)
(0.998443 0.000945896 0)
(1.00196 0.00105645 0)
(1.0036 0.000249826 0)
(1.00272 0.00047312 0)
(1.00328 4.57822e-05 0)
(1.00453 0.000364973 0)
(1.00443 -0.000195047 0)
(1.00482 0.000657993 0)
(1.0055 -0.000352302 0)
(1.00553 0.000475415 0)
(1.00567 0.000456649 0)
(1.00584 0.000322602 0)
(1.00597 0.00127145 0)
(1.00662 0.00164654 0)
(1.00672 0.00254261 0)
(1.00675 0.00398886 0)
(1.00694 0.00537334 0)
(1.00706 0.00704523 0)
(1.00677 0.00906221 0)
(1.00032 -0.000939044 0)
(0.998503 0.00103041 0)
(1.00193 0.00086962 0)
(1.00358 0.000245273 0)
(1.00268 0.000381396 0)
(1.00326 3.21938e-05 0)
(1.00448 0.000319845 0)
(1.00442 -0.000198536 0)
(1.00478 0.000593923 0)
(1.00548 -0.000252164 0)
(1.00555 0.00041358 0)
(1.00566 0.000601511 0)
(1.00588 0.000493601 0)
(1.00606 0.00136419 0)
(1.00671 0.00184007 0)
(1.00691 0.00270953 0)
(1.007 0.0041146 0)
(1.00724 0.00548883 0)
(1.00744 0.00705236 0)
(1.0072 0.00894477 0)
(1.00032 -0.000959261 0)
(0.998556 0.00111071 0)
(1.00188 0.000698029 0)
(1.00355 0.000205202 0)
(1.00264 0.000319102 0)
(1.00323 -1.68095e-05 0)
(1.00443 0.000285441 0)
(1.00441 -0.00018989 0)
(1.00475 0.000537494 0)
(1.00546 -0.000102569 0)
(1.00557 0.000421569 0)
(1.00566 0.000750347 0)
(1.00591 0.000681515 0)
(1.00615 0.0014575 0)
(1.00681 0.00198858 0)
(1.00711 0.00283584 0)
(1.00725 0.00420314 0)
(1.00753 0.00557791 0)
(1.00782 0.0070436 0)
(1.00763 0.00879625 0)
(1.00032 -0.000979313 0)
(0.998601 0.00118882 0)
(1.00183 0.000545252 0)
(1.00352 0.000128495 0)
(1.0026 0.000279045 0)
(1.0032 -9.0812e-05 0)
(1.00439 0.000257972 0)
(1.00439 -0.000160644 0)
(1.00472 0.000500181 0)
(1.00543 9.00664e-05 0)
(1.0056 0.000468839 0)
(1.00567 0.000870865 0)
(1.00595 0.000852477 0)
(1.00624 0.0015532 0)
(1.00692 0.00211494 0)
(1.0073 0.00294258 0)
(1.00752 0.00427099 0)
(1.00784 0.00565449 0)
(1.00818 0.00703589 0)
(1.00805 0.00863751 0)
(1.00032 -0.000999269 0)
(0.998638 0.00125656 0)
(1.00178 0.000427268 0)
(1.0035 9.22046e-06 0)
(1.00255 0.00025053 0)
(1.00317 -0.000165847 0)
(1.00434 0.00022725 0)
(1.00437 -7.71242e-05 0)
(1.0047 0.000512899 0)
(1.00541 0.000285758 0)
(1.00562 0.000545851 0)
(1.00568 0.000956461 0)
(1.00598 0.00100936 0)
(1.00633 0.00165629 0)
(1.00703 0.00223981 0)
(1.0075 0.00303995 0)
(1.00779 0.00432172 0)
(1.00814 0.00570552 0)
(1.00853 0.00701942 0)
(1.00845 0.00847272 0)
(1.00033 -0.00101579 0)
(0.998668 0.00130514 0)
(1.00171 0.000349322 0)
(1.00347 -0.000144089 0)
(1.00251 0.000229877 0)
(1.00313 -0.000229485 0)
(1.00431 0.000201641 0)
(1.00436 5.78119e-05 0)
(1.00469 0.000553949 0)
(1.00539 0.000458552 0)
(1.00564 0.000652785 0)
(1.00569 0.00102517 0)
(1.00602 0.00115087 0)
(1.00642 0.00176642 0)
(1.00715 0.0023704 0)
(1.0077 0.00313286 0)
(1.00807 0.00435519 0)
(1.00845 0.0057228 0)
(1.00887 0.00698667 0)
(1.00884 0.00830843 0)
(1.00033 -0.0010259 0)
(0.998694 0.00132953 0)
(1.00163 0.000306384 0)
(1.00343 -0.000318341 0)
(1.00246 0.000216014 0)
(1.00309 -0.000278797 0)
(1.00429 0.000199805 0)
(1.00434 0.000206585 0)
(1.00467 0.00059569 0)
(1.00537 0.000595666 0)
(1.00565 0.000772603 0)
(1.00571 0.00109524 0)
(1.00607 0.00127129 0)
(1.00652 0.00188053 0)
(1.00727 0.0025064 0)
(1.0079 0.00322841 0)
(1.00836 0.00437164 0)
(1.00877 0.00570496 0)
(1.00921 0.00693205 0)
(1.00921 0.00814612 0)
(1.00034 -0.00103281 0)
(0.998717 0.00132919 0)
(1.00154 0.000299173 0)
(1.0034 -0.000494557 0)
(1.00242 0.00020445 0)
(1.00304 -0.00028994 0)
(1.00427 0.000200807 0)
(1.00432 0.000363367 0)
(1.00466 0.000639944 0)
(1.00535 0.00069956 0)
(1.00565 0.000895872 0)
(1.00573 0.00118155 0)
(1.00612 0.00137286 0)
(1.00662 0.00198256 0)
(1.0074 0.00263681 0)
(1.00809 0.00332598 0)
(1.00864 0.00437298 0)
(1.0091 0.00565185 0)
(1.00954 0.00684845 0)
(1.00956 0.00798008 0)
(1.00034 -0.00103405 0)
(0.99874 0.00129986 0)
(1.00144 0.000328983 0)
(1.00336 -0.00065114 0)
(1.00238 0.000198819 0)
(1.003 -0.000253542 0)
(1.00427 0.000194956 0)
(1.00431 0.000517455 0)
(1.00464 0.000699924 0)
(1.00534 0.00077971 0)
(1.00566 0.00102038 0)
(1.00574 0.00128952 0)
(1.00618 0.00146891 0)
(1.00673 0.00206089 0)
(1.00753 0.00275178 0)
(1.00828 0.00342568 0)
(1.00892 0.00437097 0)
(1.00943 0.00557235 0)
(1.00988 0.00673502 0)
(1.0099 0.00780517 0)
(1.00035 -0.0010251 0)
(0.998765 0.00123338 0)
(1.00133 0.00038983 0)
(1.00331 -0.000783827 0)
(1.00236 0.000202581 0)
(1.00295 -0.000182424 0)
(1.00427 0.000176254 0)
(1.0043 0.000656459 0)
(1.00462 0.00078272 0)
(1.00533 0.000837492 0)
(1.00568 0.00113467 0)
(1.00576 0.00141704 0)
(1.00623 0.00157485 0)
(1.00685 0.00212131 0)
(1.00767 0.00284439 0)
(1.00846 0.00352596 0)
(1.00918 0.00437901 0)
(1.00975 0.0054811 0)
(1.01022 0.00659554 0)
(1.01023 0.00761529 0)
(1.00035 -0.00100958 0)
(0.998795 0.00114051 0)
(1.00121 0.000463154 0)
(1.00326 -0.000883173 0)
(1.00234 0.000212194 0)
(1.0029 -7.75977e-05 0)
(1.00427 0.000153353 0)
(1.0043 0.000773746 0)
(1.00459 0.000892033 0)
(1.00533 0.000884138 0)
(1.0057 0.00122677 0)
(1.00577 0.00155944 0)
(1.00628 0.00169558 0)
(1.00697 0.00217504 0)
(1.00782 0.00290568 0)
(1.00865 0.00361277 0)
(1.00944 0.00439602 0)
(1.01007 0.00538722 0)
(1.01056 0.00643296 0)
(1.01056 0.00740303 0)
(1.00035 -0.000986383 0)
(0.99883 0.00102367 0)
(1.00109 0.00054273 0)
(1.00321 -0.000945795 0)
(1.00233 0.000223754 0)
(1.00284 6.17253e-05 0)
(1.00428 0.000141761 0)
(1.00431 0.000868835 0)
(1.00455 0.00103063 0)
(1.00532 0.000942174 0)
(1.00574 0.00129374 0)
(1.0058 0.00170299 0)
(1.00632 0.00183107 0)
(1.00709 0.00223117 0)
(1.00799 0.0029385 0)
(1.00884 0.00367434 0)
(1.00968 0.00441509 0)
(1.01038 0.00529801 0)
(1.01089 0.00625535 0)
(1.01089 0.00716869 0)
(1.00034 -0.000954803 0)
(0.998872 0.000888897 0)
(1.00097 0.000617686 0)
(1.00316 -0.000981232 0)
(1.00234 0.000240762 0)
(1.00279 0.000232129 0)
(1.00428 0.000147254 0)
(1.00433 0.000930781 0)
(1.00452 0.00118313 0)
(1.00531 0.00101997 0)
(1.00579 0.00133525 0)
(1.00584 0.0018259 0)
(1.00636 0.00197948 0)
(1.00721 0.00229716 0)
(1.00817 0.00295403 0)
(1.00904 0.00370666 0)
(1.00992 0.0044261 0)
(1.01067 0.00521339 0)
(1.01122 0.00606867 0)
(1.01121 0.00691372 0)
(1.00034 -0.000917916 0)
(0.998921 0.000748276 0)
(1.00085 0.000680787 0)
(1.0031 -0.000999996 0)
(1.00237 0.000263168 0)
(1.00273 0.000436563 0)
(1.00428 0.000181481 0)
(1.00437 0.000960877 0)
(1.00449 0.00133527 0)
(1.00529 0.00112247 0)
(1.00584 0.00136125 0)
(1.00589 0.00191456 0)
(1.0064 0.0021303 0)
(1.00731 0.00237674 0)
(1.00835 0.00295935 0)
(1.00926 0.0037077 0)
(1.01015 0.0044172 0)
(1.01094 0.00512781 0)
(1.01153 0.00587827 0)
(1.01153 0.00664372 0)
(1.00033 -0.000870937 0)
(0.998976 0.000594195 0)
(1.00073 0.000740039 0)
(1.00304 -0.000993957 0)
(1.00241 0.000277863 0)
(1.00267 0.000667939 0)
(1.00427 0.000253907 0)
(1.00442 0.000967008 0)
(1.00447 0.00147965 0)
(1.00526 0.0012544 0)
(1.0059 0.00139172 0)
(1.00596 0.00197097 0)
(1.00644 0.00227062 0)
(1.0074 0.00246933 0)
(1.00853 0.00295979 0)
(1.00948 0.00367698 0)
(1.01039 0.00437846 0)
(1.0112 0.0050337 0)
(1.01182 0.005688 0)
(1.01184 0.0063663 0)
(1.00032 -0.000815249 0)
(0.999037 0.000436136 0)
(1.00062 0.000793935 0)
(1.00298 -0.000961021 0)
(1.00247 0.000284179 0)
(1.00262 0.000909761 0)
(1.00424 0.000371255 0)
(1.00448 0.00095735 0)
(1.00446 0.00160514 0)
(1.00522 0.00141071 0)
(1.00595 0.00143877 0)
(1.00605 0.00200136 0)
(1.0065 0.00238951 0)
(1.00749 0.00257111 0)
(1.0087 0.0029635 0)
(1.00971 0.00362153 0)
(1.01063 0.00430833 0)
(1.01145 0.00492715 0)
(1.01209 0.0055012 0)
(1.01213 0.00609028 0)
(1.00031 -0.000751196 0)
(0.999106 0.000278569 0)
(1.00052 0.000856445 0)
(1.00292 -0.000892328 0)
(1.00256 0.000270542 0)
(1.00258 0.00114053 0)
(1.00419 0.000536546 0)
(1.00454 0.000946458 0)
(1.00448 0.00170208 0)
(1.00518 0.00158533 0)
(1.00599 0.00150929 0)
(1.00616 0.00201491 0)
(1.00657 0.00247964 0)
(1.00756 0.00267531 0)
(1.00886 0.00297765 0)
(1.00993 0.00355325 0)
(1.01087 0.0042113 0)
(1.01169 0.00480596 0)
(1.01234 0.00531798 0)
(1.01239 0.00582215 0)
(1.00029 -0.000678348 0)
(0.999182 0.0001305 0)
(1.00043 0.000927839 0)
(1.00286 -0.000775528 0)
(1.00266 0.000228145 0)
(1.00256 0.00133579 0)
(1.00412 0.000743646 0)
(1.0046 0.00094877 0)
(1.00451 0.00176491 0)
(1.00513 0.00176901 0)
(1.00601 0.00160888 0)
(1.00626 0.00202271 0)
(1.00666 0.00253528 0)
(1.00763 0.00276786 0)
(1.00899 0.00299742 0)
(1.01015 0.00347528 0)
(1.01112 0.00408445 0)
(1.01193 0.0046573 0)
(1.01258 0.00512427 0)
(1.01264 0.00555434 0)
(1.00027 -0.000603552 0)
(0.999265 1.47948e-05 0)
(1.00036 0.000994213 0)
(1.00278 -0.000623109 0)
(1.00277 0.00016737 0)
(1.00256 0.0014815 0)
(1.00404 0.000986121 0)
(1.00465 0.000982721 0)
(1.00457 0.00179553 0)
(1.00509 0.00194424 0)
(1.00601 0.00174003 0)
(1.00637 0.00203867 0)
(1.00676 0.00256091 0)
(1.0077 0.00283981 0)
(1.0091 0.00302015 0)
(1.01034 0.00339596 0)
(1.01136 0.00393479 0)
(1.01216 0.00447747 0)
(1.01279 0.00491128 0)
(1.01286 0.00528138 0)
(1.00025 -0.000519229 0)
(0.999355 -9.31852e-05 0)
(1.0003 0.00105926 0)
(1.00269 -0.000424044 0)
(1.00289 0.000120062 0)
(1.00259 0.00157859 0)
(1.00395 0.00124846 0)
(1.00468 0.00106082 0)
(1.00463 0.0017999 0)
(1.00506 0.00208678 0)
(1.00599 0.00188932 0)
(1.00646 0.00206932 0)
(1.00687 0.00256315 0)
(1.00777 0.00288468 0)
(1.00919 0.00304123 0)
(1.01051 0.00332267 0)
(1.01158 0.00377521 0)
(1.01239 0.00427237 0)
(1.013 0.00467705 0)
(1.01305 0.00500021 0)
(1.00023 -0.000428548 0)
(0.999449 -0.000181056 0)
(1.00026 0.00111098 0)
(1.00259 -0.00019244 0)
(1.003 9.61266e-05 0)
(1.00264 0.00162915 0)
(1.00386 0.00150838 0)
(1.00469 0.00118755 0)
(1.00471 0.00179987 0)
(1.00504 0.00219336 0)
(1.00596 0.00204364 0)
(1.00653 0.00212022 0)
(1.00698 0.00255162 0)
(1.00785 0.00289922 0)
(1.00926 0.0030507 0)
(1.01064 0.00325323 0)
(1.01178 0.0036127 0)
(1.01261 0.00404863 0)
(1.01319 0.00442039 0)
(1.01322 0.00470534 0)
(1.00021 -0.000340814 0)
(0.999546 -0.000219927 0)
(1.00025 0.00114342 0)
(1.00248 4.99749e-05 0)
(1.00311 0.000100038 0)
(1.00273 0.00163561 0)
(1.00377 0.0017499 0)
(1.00466 0.00135986 0)
(1.00478 0.00181887 0)
(1.00505 0.00227424 0)
(1.00592 0.00219366 0)
(1.00657 0.00219267 0)
(1.00709 0.00253628 0)
(1.00793 0.00288407 0)
(1.00932 0.00303709 0)
(1.01074 0.00317854 0)
(1.01195 0.00344733 0)
(1.0128 0.00381127 0)
(1.01337 0.00414234 0)
(1.01337 0.0043926 0)
(1.00019 -0.000257378 0)
(0.999642 -0.000224562 0)
(1.00025 0.00117161 0)
(1.00236 0.000306072 0)
(1.00319 0.000148684 0)
(1.00284 0.00161121 0)
(1.00369 0.00196192 0)
(1.00461 0.00156453 0)
(1.00484 0.00185995 0)
(1.00506 0.00232779 0)
(1.00588 0.00232312 0)
(1.00659 0.00227496 0)
(1.00718 0.00252004 0)
(1.008 0.00284096 0)
(1.00936 0.00299196 0)
(1.01081 0.00308945 0)
(1.01208 0.00327661 0)
(1.01297 0.00356447 0)
(1.01353 0.00384753 0)
(1.0135 0.00406308 0)
(1.00017 -0.000173314 0)
(0.999738 -0.000211484 0)
(1.00027 0.00117971 0)
(1.00224 0.000575649 0)
(1.00326 0.000251428 0)
(1.00296 0.00157778 0)
(1.00364 0.00214264 0)
(1.00454 0.00179932 0)
(1.00488 0.00193913 0)
(1.00508 0.00237229 0)
(1.00583 0.00243797 0)
(1.00657 0.00236961 0)
(1.00724 0.00251759 0)
(1.00806 0.00278478 0)
(1.00938 0.00292276 0)
(1.01085 0.00298572 0)
(1.01217 0.00310094 0)
(1.0131 0.00331165 0)
(1.01366 0.00354017 0)
(1.01361 0.00371829 0)
(1.00015 -8.87907e-05 0)
(0.999827 -0.000184587 0)
(1.00031 0.00116372 0)
(1.00212 0.000844326 0)
(1.00329 0.00041938 0)
(1.0031 0.00155597 0)
(1.00362 0.00229158 0)
(1.00445 0.0020496 0)
(1.00488 0.0020649 0)
(1.0051 0.00242153 0)
(1.00578 0.00254048 0)
(1.00654 0.00246843 0)
(1.00726 0.0025324 0)
(1.0081 0.00272092 0)
(1.00939 0.00283235 0)
(1.01086 0.00285758 0)
(1.01222 0.00290932 0)
(1.01319 0.00304196 0)
(1.01375 0.00321061 0)
(1.01369 0.00334792 0)
(1.00013 -1.53217e-05 0)
(0.99991 -0.000121836 0)
(1.00037 0.00115341 0)
(1.00202 0.00109598 0)
(1.0033 0.000643952 0)
(1.00324 0.00156238 0)
(1.00362 0.00240289 0)
(1.00436 0.00229313 0)
(1.00486 0.00222695 0)
(1.00511 0.00248309 0)
(1.00574 0.00262534 0)
(1.00648 0.00255917 0)
(1.00725 0.0025584 0)
(1.00811 0.00265757 0)
(1.00938 0.00272619 0)
(1.01084 0.00270621 0)
(1.01222 0.00269906 0)
(1.01324 0.00275449 0)
(1.01382 0.00285871 0)
(1.01373 0.0029516 0)
(1.00012 4.90821e-05 0)
(0.999984 -2.47729e-05 0)
(1.00044 0.00114467 0)
(1.00193 0.00132729 0)
(1.00328 0.000903371 0)
(1.00336 0.00161556 0)
(1.00365 0.00248833 0)
(1.00427 0.00252822 0)
(1.00481 0.00242199 0)
(1.0051 0.00257855 0)
(1.00569 0.0027037 0)
(1.00641 0.00264543 0)
(1.0072 0.00258975 0)
(1.00809 0.00260562 0)
(1.00933 0.00260963 0)
(1.01077 0.00254112 0)
(1.01218 0.0024702 0)
(1.01323 0.00245325 0)
(1.01383 0.00248746 0)
(1.01374 0.00253163 0)
(1.0001 0.000109273 0)
(1.00005 9.23617e-05 0)
(1.00053 0.00114825 0)
(1.00186 0.00153093 0)
(1.00324 0.00119108 0)
(1.00347 0.00171872 0)
(1.00369 0.00257094 0)
(1.00419 0.00274676 0)
(1.00473 0.00264129 0)
(1.00506 0.00270685 0)
(1.00562 0.00278808 0)
(1.00631 0.00272656 0)
(1.00711 0.00262393 0)
(1.00801 0.00256367 0)
(1.00924 0.00249072 0)
(1.01066 0.00236514 0)
(1.01208 0.00222492 0)
(1.01317 0.00213504 0)
(1.01379 0.00209748 0)
(1.01371 0.0020864 0)
(1.00009 0.00016273 0)
(1.0001 0.000231945 0)
(1.00061 0.00118137 0)
(1.0018 0.0017121 0)
(1.00318 0.0014969 0)
(1.00355 0.00187361 0)
(1.00375 0.00266816 0)
(1.00412 0.00295039 0)
(1.00463 0.00287599 0)
(1.00498 0.00286303 0)
(1.00554 0.00288547 0)
(1.00619 0.00280229 0)
(1.00699 0.00266065 0)
(1.00789 0.00252579 0)
(1.0091 0.00237554 0)
(1.0105 0.00217925 0)
(1.01192 0.00196791 0)
(1.01304 0.00180003 0)
(1.01369 0.00169068 0)
(1.01362 0.00161887 0)
(1.00008 0.000210428 0)
(1.00013 0.000383511 0)
(1.00069 0.00123429 0)
(1.00177 0.00187717 0)
(1.00312 0.00180566 0)
(1.00359 0.00207846 0)
(1.0038 0.00278674 0)
(1.00406 0.00314749 0)
(1.00451 0.00312157 0)
(1.00488 0.00305111 0)
(1.00542 0.00300573 0)
(1.00604 0.00288338 0)
(1.00682 0.00270109 0)
(1.00771 0.00249519 0)
(1.0089 0.00226398 0)
(1.01027 0.00198889 0)
(1.01169 0.00169934 0)
(1.01283 0.00144979 0)
(1.01352 0.00126274 0)
(1.01347 0.00112622 0)
(1.00008 0.000254782 0)
(1.00016 0.000536356 0)
(1.00076 0.00131437 0)
(1.00175 0.00203355 0)
(1.00304 0.00211609 0)
(1.00361 0.00232898 0)
(1.00384 0.00293954 0)
(1.00401 0.0033423 0)
(1.00438 0.00337305 0)
(1.00473 0.00326987 0)
(1.00526 0.00315569 0)
(1.00585 0.00298183 0)
(1.0066 0.00274738 0)
(1.00746 0.00247265 0)
(1.00862 0.00215648 0)
(1.00997 0.00179364 0)
(1.01138 0.00141604 0)
(1.01255 0.00107668 0)
(1.01327 0.000803106 0)
(1.01324 0.000595218 0)
(1.00007 0.0002978 0)
(1.00018 0.0006923 0)
(1.00083 0.00142436 0)
(1.00175 0.00218852 0)
(1.00297 0.00241586 0)
(1.0036 0.00261495 0)
(1.00387 0.00313211 0)
(1.00396 0.00355048 0)
(1.00424 0.00363651 0)
(1.00455 0.00352043 0)
(1.00505 0.0033471 0)
(1.00561 0.0031074 0)
(1.00633 0.00281172 0)
(1.00715 0.00245737 0)
(1.00827 0.00205577 0)
(1.00957 0.00159072 0)
(1.01097 0.00111565 0)
(1.01216 0.000668887 0)
(1.01292 0.000299168 0)
(1.01293 9.82269e-06 0)
(1.00007 0.00033908 0)
(1.00019 0.000848197 0)
(1.00088 0.00156168 0)
(1.00175 0.00234871 0)
(1.0029 0.00270743 0)
(1.00356 0.00292224 0)
(1.00387 0.00336466 0)
(1.00391 0.00377184 0)
(1.00409 0.00391266 0)
(1.00434 0.00380627 0)
(1.0048 0.003585 0)
(1.00532 0.00327988 0)
(1.00599 0.00290957 0)
(1.00677 0.0024719 0)
(1.00782 0.00196772 0)
(1.00907 0.00139598 0)
(1.01045 0.000795642 0)
(1.01164 0.000230882 0)
(1.01245 -0.0002593 0)
(1.01251 -0.000659644 0)
(1.00007 0.000386135 0)
(1.0002 0.000996664 0)
(1.00092 0.00172776 0)