/*--------------------------------*- C++ -*----------------------------------*\
| =========                 |                                                 |
| \\      /  F ield         | OpenFOAM: The Open Source CFD Toolbox           |
|  \\    /   O peration     | Version:  v2012                                 |
|   \\  /    A nd           | Website:  www.openfoam.com                      |
|    \\/     M anipulation  |                                                 |
\*---------------------------------------------------------------------------*/
FoamFile
{
    version     2.0;
    format      ascii;
    class       volScalarField;
    location    "0.35";
    object      p;
}
// * * * * * * * * * * * * * * * * * * * * * * * * * * * * * * * * * * * * * //

dimensions      [0 2 -2 0 0 0 0];


internalField   nonuniform List<scalar> 
17600
(
-6.26783e-11
-0.0020226
-0.0024299
-0.00162967
-0.00171247
-0.0012572
-0.00143364
-0.00129696
-0.00150888
-0.00122258
-0.00117973
-0.0010223
-0.00106907
-0.000740847
-0.00066989
-0.000124319
0.00028825
0.0016405
0.00316934
0.00645246
2.25242e-06
-0.00202817
-0.00243185
-0.00163008
-0.00171199
-0.00126487
-0.00143235
-0.00130204
-0.00150706
-0.0012257
-0.00117785
-0.00102765
-0.00106638
-0.00075104
-0.00066554
-0.000149013
0.000297458
0.00157923
0.00318342
0.00615066
4.5557e-06
-0.00203768
-0.00243363
-0.00163077
-0.00171192
-0.00127338
-0.00143029
-0.00130627
-0.00150423
-0.0012301
-0.00117501
-0.00103452
-0.00106257
-0.000763048
-0.000660182
-0.000175498
0.00030761
0.00151488
0.00318296
0.00573808
5.04228e-06
-0.00204346
-0.0024349
-0.00163216
-0.00171202
-0.00128152
-0.00142812
-0.00131089
-0.00150135
-0.00123472
-0.00117218
-0.00104163
-0.00105884
-0.000775582
-0.000655171
-0.000202544
0.000315465
0.00145146
0.00315375
0.00533681
3.93129e-06
-0.0020482
-0.00243625
-0.00163444
-0.00171199
-0.0012895
-0.00142595
-0.00131617
-0.00149837
-0.00123968
-0.00116924
-0.00104929
-0.00105485
-0.000789243
-0.00064975
-0.000231988
0.000321584
0.00138451
0.00309522
0.0049585
1.64904e-06
-0.00205206
-0.002438
-0.00163755
-0.00171177
-0.00129744
-0.00142373
-0.0013222
-0.00149518
-0.0012451
-0.00116596
-0.00105757
-0.00105035
-0.000804419
-0.00064391
-0.00026362
0.000325077
0.00131344
0.00300858
0.00460474
-1.55523e-06
-0.00205524
-0.00244021
-0.00164131
-0.00171139
-0.00130537
-0.00142142
-0.00132886
-0.00149181
-0.00125095
-0.00116225
-0.00106643
-0.00104533
-0.000820247
-0.00063822
-0.000296783
0.000323966
0.00123945
0.00289476
0.00427098
-5.46766e-06
-0.00205796
-0.00244278
-0.00164554
-0.00171089
-0.00131334
-0.00141897
-0.00133608
-0.00148829
-0.0012572
-0.00115813
-0.00107584
-0.00103996
-0.000836935
-0.00063337
-0.000330692
0.000315909
0.00116379
0.00275443
0.00395104
-9.83993e-06
-0.00206043
-0.00244555
-0.00165011
-0.00171032
-0.00132143
-0.00141631
-0.00134382
-0.00148466
-0.00126385
-0.00115366
-0.0010858
-0.00103448
-0.000854223
-0.000630121
-0.000364429
0.000298734
0.00108708
0.00258901
0.00363892
-1.4447e-05
-0.00206281
-0.00244842
-0.00165495
-0.00170973
-0.00132971
-0.00141344
-0.00135209
-0.00148097
-0.0012709
-0.00114892
-0.00109623
-0.00102916
-0.000871697
-0.000629338
-0.000396988
0.000270757
0.00100917
0.00240116
0.00332937
-1.9138e-05
-0.00206526
-0.00245134
-0.00166003
-0.00170919
-0.00133822
-0.00141041
-0.00136084
-0.00147725
-0.0012783
-0.00114399
-0.00110688
-0.00102439
-0.000888807
-0.000631958
-0.000427818
0.00023089
0.000928914
0.00219474
0.00301836
-2.38382e-05
-0.00206792
-0.00245432
-0.00166532
-0.0017087
-0.001347
-0.00140724
-0.00137003
-0.00147355
-0.00128595
-0.00113906
-0.00111742
-0.00102058
-0.000904956
-0.000638907
-0.000456746
0.000178804
0.000844218
0.00197434
0.00270336
-2.85248e-05
-0.0020709
-0.0024574
-0.00167079
-0.0017083
-0.00135607
-0.00140399
-0.00137958
-0.00146996
-0.0012937
-0.00113433
-0.0011278
-0.00101828
-0.000919177
-0.000650964
-0.000484252
0.000115091
0.000752435
0.00174445
0.00238327
-3.3205e-05
-0.00207426
-0.0024606
-0.00167637
-0.00170805
-0.0013654
-0.0014007
-0.00138941
-0.00146657
-0.00130136
-0.00113003
-0.00113697
-0.00101804
-0.000931284
-0.000668586
-0.000511492
4.11534e-05
0.00065099
0.00150873
0.00205817
-3.79028e-05
-0.00207805
-0.00246397
-0.00168201
-0.00170798
-0.00137496
-0.00139748
-0.00139939
-0.00146355
-0.00130868
-0.00112648
-0.00114478
-0.00102036
-0.00094125
-0.000691716
-0.000540196
-4.13294e-05
0.000537851
0.00126972
0.00172915
-4.26559e-05
-0.00208225
-0.00246757
-0.00168763
-0.00170819
-0.00138471
-0.00139441
-0.00140939
-0.0014611
-0.00131533
-0.00112403
-0.00115088
-0.00102554
-0.000949452
-0.000719717
-0.000572273
-0.000131049
0.000411486
0.00102902
0.00139826
-4.75165e-05
-0.00208685
-0.00247145
-0.00169314
-0.00170876
-0.00139454
-0.00139165
-0.00141921
-0.00145951
-0.00132104
-0.00112297
-0.00115506
-0.00103364
-0.000956747
-0.00075155
-0.000609331
-0.000227323
0.000271062
0.000787431
0.00106831
-5.25538e-05
-0.00209177
-0.00247571
-0.00169844
-0.00170981
-0.00140436
-0.00138938
-0.00142861
-0.00145902
-0.00132557
-0.00112351
-0.00115736
-0.00104427
-0.000964357
-0.000786314
-0.000652499
-0.000329828
0.000116529
0.000544601
0.000742276
-5.78558e-05
-0.00209693
-0.00248044
-0.0017034
-0.00171152
-0.00141401
-0.00138781
-0.00143735
-0.00145983
-0.00132879
-0.00112572
-0.0011582
-0.00105666
-0.000973401
-0.000823663
-0.000702677
-0.000438216
-5.15022e-05
0.00029904
0.000422531
-6.35331e-05
-0.00210218
-0.00248579
-0.00170787
-0.00171406
-0.00142333
-0.00138714
-0.00144528
-0.00146206
-0.00133067
-0.00112941
-0.00115831
-0.00106992
-0.000984546
-0.000863575
-0.000760414
-0.000552012
-0.000231622
4.87418e-05
0.00011004
-6.97226e-05
-0.00210737
-0.0024919
-0.00171168
-0.00171765
-0.00143217
-0.00138753
-0.00145234
-0.00146581
-0.00133138
-0.001134
-0.00115868
-0.00108345
-0.000998172
-0.00090645
-0.000826137
-0.000670902
-0.000421435
-0.000207662
-0.00019598
-7.65953e-05
-0.00211226
-0.00249897
-0.0017146
-0.00172251
-0.00144046
-0.00138907
-0.00145854
-0.00147099
-0.00133145
-0.00113854
-0.00116012
-0.00109716
-0.00101445
-0.000953142
-0.000900674
-0.000795072
-0.000617898
-0.000470001
-0.000497664
-8.43689e-05
-0.00211659
-0.00250723
-0.00171645
-0.00172882
-0.00144817
-0.00139181
-0.00146397
-0.00147715
-0.00133181
-0.00114207
-0.00116286
-0.00111126
-0.00103315
-0.00100425
-0.00098525
-0.000925387
-0.000818124
-0.000736442
-0.000797457
-9.32984e-05
-0.0021204
-0.00251692
-0.00171711
-0.00173669
-0.00145535
-0.00139565
-0.00146907
-0.00148346
-0.0013335
-0.00114425
-0.00116674
-0.00112656
-0.00105397
-0.00105928
-0.0010806
-0.00106337
-0.00102003
-0.00100395
-0.00109676
-0.000103674
-0.00212244
-0.00252831
-0.00171648
-0.0017462
-0.00146216
-0.00140025
-0.00147457
-0.00148885
-0.00133717
-0.00114524
-0.00117129
-0.0011444
-0.00107745
-0.00111734
-0.00118638
-0.00121084
-0.00122268
-0.00126908
-0.00139496
-0.000115844
-0.00212251
-0.00254164
-0.00171454
-0.00175732
-0.00146897
-0.00140492
-0.00148151
-0.00149235
-0.00134277
-0.00114562
-0.00117575
-0.0011661
-0.00110514
-0.00117756
-0.00130107
-0.00136939
-0.0014265
-0.00152893
-0.0016895
-0.000130202
-0.00212013
-0.0025571
-0.0017114
-0.00176985
-0.00147638
-0.00140867
-0.00149099
-0.00149356
-0.00135008
-0.00114658
-0.001179
-0.00119236
-0.00113897
-0.0012395
-0.0014224
-0.00153952
-0.00163328
-0.00178187
-0.00197687
-0.000147204
-0.00211479
-0.00257484
-0.0017073
-0.00178331
-0.00148525
-0.00141032
-0.00150383
-0.0014926
-0.00135848
-0.00114996
-0.00117992
-0.00122273
-0.0011813
-0.00130361
-0.00154743
-0.00171998
-0.00184525
-0.00202775
-0.00225374
-0.000167352
-0.00210601
-0.00259528
-0.00170259
-0.00179686
-0.00149675
-0.00140869
-0.0015203
-0.00149039
-0.00136652
-0.00115791
-0.00117859
-0.00125564
-0.00123471
-0.0013718
-0.00167266
-0.00190748
-0.00206379
-0.00226792
-0.00251771
-0.00019114
-0.00209322
-0.00261729
-0.00169797
-0.00180943
-0.00151222
-0.00140313
-0.00154026
-0.00148861
-0.00137209
-0.00117209
-0.00117688
-0.00128856
-0.00130074
-0.00144784
-0.00179515
-0.00209696
-0.00228845
-0.00250454
-0.00276775
-0.000219056
-0.00207593
-0.0026409
-0.00169435
-0.00181975
-0.00153294
-0.00139367
-0.00156292
-0.00148937
-0.00137328
-0.00119275
-0.00117823
-0.00131868
-0.0013781
-0.00153629
-0.00191468
-0.00228238
-0.00251622
-0.00273945
-0.00300417
-0.000251619
-0.00205385
-0.00266536
-0.00169275
-0.00182745
-0.00155975
-0.00138105
-0.00158656
-0.00149498
-0.00136923
-0.00121854
-0.00118682
-0.00134493
-0.00146289
-0.00164095
-0.00203487
-0.0024587
-0.0027417
-0.00297288
-0.00322827
-0.0002893
-0.00202693
-0.0026895
-0.00169453
-0.00182981
-0.00159307
-0.00136639
-0.00160871
-0.00150748
-0.00136041
-0.00124732
-0.00120637
-0.00136883
-0.00155033
-0.00176247
-0.00216151
-0.00262419
-0.00295854
-0.00320248
-0.00344125
-0.000332291
-0.00199536
-0.00271194
-0.00170106
-0.00182646
-0.00163254
-0.00135148
-0.00162711
-0.00152833
-0.00134829
-0.00127661
-0.00123948
-0.00139379
-0.00163549
-0.00189743
-0.00229948
-0.00278165
-0.00316166
-0.00342397
-0.00364361
-0.000380761
-0.00195959
-0.00273106
-0.00171338
-0.00181852
-0.00167715
-0.00133874
-0.00164033
-0.00155835
-0.00133502
-0.00130353
-0.00128769
-0.0014244
-0.00171452
-0.00203983
-0.00245128
-0.00293563
-0.00334834
-0.00363253
-0.00383531
-0.000434928
-0.00192047
-0.0027451
-0.00173215
-0.0018065
-0.00172534
-0.0013301
-0.00164712
-0.00159777
-0.00132394
-0.00132512
-0.00135091
-0.00146621
-0.00178552
-0.00218251
-0.00261597
-0.00309019
-0.00351807
-0.00382376
-0.00401572
-0.000494614
-0.00187934
-0.0027526
-0.00175749
-0.00179164
-0.00177551
-0.00132694
-0.00164613
-0.00164604
-0.00131967
-0.00133878
-0.00142629
-0.00152547
-0.00184988
-0.00231735
-0.00278891
-0.00324859
-0.00367225
-0.00399426
-0.00418337
-0.000559387
-0.00183764
-0.00275251
-0.00178891
-0.00177537
-0.00182655
-0.00133079
-0.00163698
-0.00170167
-0.00132678
-0.00134323
-0.00150808
-0.0016075
-0.00191389
-0.00243694
-0.002962
-0.00341245
-0.00381363
-0.00414154
-0.00433567
-0.000628726
-0.00179668
-0.00274428
-0.00182542
-0.00175867
-0.0018773
-0.00134328
-0.00162005
-0.00176282
-0.00134955
-0.00133937
-0.00158975
-0.001714
-0.00198653
-0.00253854
-0.00312534
-0.00357986
-0.00394562
-0.00426366
-0.00446804
-0.000701995
-0.00175766
-0.00272812
-0.00186553
-0.00174234
-0.00192718
-0.00136614
-0.00159536
-0.0018263
-0.00139297
-0.00133105
-0.00166352
-0.00184136
-0.00207665
-0.00262714
-0.00327026
-0.00374477
-0.0040713
-0.00435998
-0.0045735
-0.000778446
-0.00172175
-0.00270491
-0.00190774
-0.00172667
-0.001976
-0.00140151
-0.00156382
-0.00188734
-0.00146104
-0.00132523
-0.00172143
-0.00198097
-0.00219075
-0.00271205
-0.00339351
-0.00389942
-0.00419177
-0.00443262
-0.00464446
-0.000857353
-0.0016899
-0.00267591
-0.00195115
-0.001711
-0.00202305
-0.00145175
-0.00152842
-0.00194037
-0.00155397
-0.00133055
-0.0017593
-0.00212269
-0.00232985
-0.00280246
-0.00349776
-0.00403802
-0.00430609
-0.00448623
-0.00467697
-0.000938147
-0.00166268
-0.00264224
-0.00199544
-0.00169511
-0.0020667
-0.0015187
-0.00149357
-0.00197892
-0.00166861
-0.00135714
-0.00177903
-0.00225461
-0.00248771
-0.00290581
-0.00358798
-0.00415764
-0.00441298
-0.00452688
-0.00467381
-0.00102016
-0.00164046
-0.00260492
-0.00204077
-0.00167947
-0.0021035
-0.00160362
-0.00146555
-0.00199637
-0.00179859
-0.001416
-0.0017882
-0.00236476
-0.00265488
-0.00302487
-0.00367014
-0.00425779
-0.0045111
-0.00456109
-0.00464361
-0.00110287
-0.00162362
-0.00256456
-0.00208779
-0.0016649
-0.00212827
-0.00170636
-0.00145356
-0.00199086
-0.00193268
-0.00151311
-0.00179883
-0.00244621
-0.00281994
-0.00315754
-0.00374908
-0.00434016
-0.00459951
-0.00459484
-0.00459883
-0.00118594
-0.00161243
-0.0025212
-0.00213778
-0.00165337
-0.00213646
-0.00182366
-0.0014688
-0.00196791
-0.00205506
-0.00164271
-0.00182699
-0.00250353
-0.00296919
-0.00329761
-0.00382701
-0.00440589
-0.00467807
-0.00463336
-0.00455381
-0.00126895
-0.00160718
-0.00247498
-0.00219146
-0.00164851
-0.00212529
-0.00194988
-0.00152022
-0.00193545
-0.00215254
-0.00179459
-0.00188396
-0.00254774
-0.00309546
-0.00343638
-0.00390313
-0.00445321
-0.00474347
-0.00467971
-0.00452204
-0.0013514
-0.00160845
-0.00242531
-0.00224782
-0.00165547
-0.00209496
-0.00207381
-0.00161148
-0.00190736
-0.00221833
-0.00195455
-0.00197096
-0.00259105
-0.00320281
-0.00356737
-0.00397559
-0.00447999
-0.00478674
-0.00473088
-0.00451378
-0.00143275
-0.00161679
-0.00237251
-0.00230443
-0.00167988
-0.00204933
-0.00218062
-0.0017386
-0.00190377
-0.00225666
-0.00210207
-0.00208089
-0.00264358
-0.00329626
-0.00369148
-0.00404411
-0.00448649
-0.00479787
-0.00477365
-0.00453169
-0.00151238
-0.00163277
-0.00231753
-0.00235911
-0.00172593
-0.00199573
-0.00225796
-0.00189313
-0.00194092
-0.00227849
-0.00222141
-0.00220034
-0.0027091
-0.00338285
-0.00381175
-0.00411403
-0.00447638
-0.00477208
-0.00478859
-0.00456351
-0.00158942
-0.00165714
-0.00226249
-0.00240777
-0.00179523
-0.00194439
-0.0022992
-0.00206025
-0.00202491
-0.00230264
-0.00231304
-0.00230973
-0.00277935
-0.00346905
-0.003932
-0.00419328
-0.00446041
-0.00471061
-0.00476173
-0.00458435
-0.00166296
-0.00169033
-0.00221014
-0.0024442
-0.00188573
-0.00190876
-0.0023061
-0.00221809
-0.00215154
-0.00235116
-0.00238518
-0.00239659
-0.002841
-0.00355033
-0.00405728
-0.00428958
-0.00445508
-0.0046241
-0.00468576
-0.00457072
-0.00173244
-0.0017322
-0.00216352
-0.00246398
-0.00199251
-0.00190075
-0.00228502
-0.00234658
-0.00230985
-0.00244048
-0.0024513
-0.00245974
-0.00288008
-0.00361293
-0.00418467
-0.00441119
-0.00447673
-0.00453468
-0.00456436
-0.00450612
-0.00179733
-0.00178185
-0.00212637
-0.00246636
-0.00210834
-0.00192754
-0.00224887
-0.00243503
-0.00247989
-0.00257356
-0.00253652
-0.0025062
-0.00288752
-0.00364315
-0.00429719
-0.0045598
-0.00454188
-0.00446762
-0.00441836
-0.00438361
-0.00185745
-0.00183765
-0.00210256
-0.00245444
-0.00222279
-0.00199118
-0.00221579
-0.00248244
-0.00263566
-0.00273889
-0.00266196
-0.00255447
-0.00286391
-0.00362736
-0.00437708
-0.00472024
-0.00466246
-0.00444991
-0.00427922
-0.00421435
-0.00191307
-0.00189763
-0.00209499
-0.00243266
-0.00232407
-0.00208706
-0.00220498
-0.00249449
-0.00275637
-0.00292072
-0.00283086
-0.00263314
-0.00282429
-0.00355566
-0.00440343
-0.00486763
-0.00483344
-0.00450771
-0.00418183
-0.0040301
-0.0019648
-0.00195957
-0.00210469
-0.00240704
-0.00240402
-0.00220632
-0.00222994
-0.00248397
-0.00283127
-0.00309512
-0.00303367
-0.00276128
-0.00279641
-0.003437
-0.00435478
-0.00497498
-0.00502877
-0.00465067
-0.00416457
-0.00386931
-0.00201362
-0.00202134
-0.00213059
-0.00238491
-0.00246072
-0.00233617
-0.00229535
-0.00247269
-0.00286166
-0.00323533
-0.00325471
-0.00294419
-0.00281219
-0.00329767
-0.00422391
-0.00500895
-0.00521655
-0.00486152
-0.00425295
-0.00377657
-0.00206082
-0.00208119
-0.00217015
-0.00237324
-0.00249731
-0.00246095
-0.00239663
-0.00248313
-0.00285694
-0.00332401
-0.00346756
-0.00317333
-0.00289305
-0.00317439
-0.00403118
-0.00494288
-0.00535508
-0.00510565
-0.0044454
-0.00379367
-0.00210771
-0.00213805
-0.00221986
-0.00237706
-0.00251977
-0.00256743
-0.00252286
-0.00253026
-0.00283502
-0.00335834
-0.0036418
-0.00342696
-0.00304865
-0.00310472
-0.00380994
-0.00477592
-0.00540004
-0.00533866
-0.00471284
-0.00393878
-0.00215538
-0.00219183
-0.00227562
-0.00239811
-0.00253576
-0.00264988
-0.00265928
-0.00261804
-0.00282123
-0.00334668
-0.00375767
-0.00367449
-0.00326807
-0.00311685
-0.00360594
-0.00453602
-0.00532597
-0.00550415
-0.00501197
-0.00419855
-0.00220461
-0.00224318
-0.00233348
-0.0024352
-0.00255374
-0.00271006
-0.00278878
-0.00273857
-0.00283811
-0.00330451
-0.00380852
-0.00388351
-0.00352294
-0.00322143
-0.00346417
-0.0042629
-0.00514149
-0.00555716
-0.00528352
-0.00453029
-0.00225578
-0.00229327
-0.00239029
-0.00248503
-0.00258084
-0.00275404
-0.00289823
-0.00287749
-0.0028967
-0.00325875
-0.00380069
-0.00403174
-0.00377969
-0.00340277
-0.00341575
-0.00401065
-0.00488107
-0.00548354
-0.0054691
-0.0048787
-0.00230881
-0.00234335
-0.00244438
-0.00254334
-0.00262098
-0.00278925
-0.00298284
-0.00301812
-0.00299385
-0.0032372
-0.00375164
-0.00410813
-0.00400432
-0.00362972
-0.00346815
-0.00382824
-0.00459316
-0.00530462
-0.0055355
-0.00517875
-0.0023633
-0.00239451
-0.00249566
-0.00260561
-0.00267431
-0.00282365
-0.00304492
-0.00314492
-0.00311625
-0.00325493
-0.00368934
-0.00411728
-0.00417104
-0.00386796
-0.00360253
-0.00374438
-0.00433627
-0.00505978
-0.00548116
-0.00537779
-0.00241867
-0.00244756
-0.0025452
-0.00266763
-0.002738
-0.00286411
-0.00309097
-0.00324843
-0.00324835
-0.00331249
-0.00364308
-0.00407999
-0.00426639
-0.00408238
-0.00378837
-0.00376124
-0.00415556
-0.00480293
-0.0053344
-0.00545447
-0.00247435
-0.00250262
-0.00259445
-0.00272668
-0.00280765
-0.00291443
-0.00312878
-0.00332651
-0.0033747
-0.00340065
-0.00362923
-0.00402355
-0.00429585
-0.00424601
-0.00399158
-0.00385821
-0.00407041
-0.00458576
-0.0051369
-0.00542036
-0.0025298
-0.00255927
-0.00264481
-0.00278203
-0.00287874
-0.00297435
-0.00316593
-0.00338333
-0.00348323
-0.0035053
-0.00365138
-0.00397469
-0.00428093
-0.00434745
-0.0041778
-0.00400496
-0.00407537
-0.00444024
-0.00493863
-0.00531009
-0.00258468
-0.0026168
-0.00269701
-0.00283419
-0.00294742
-0.00304092
-0.00320786
-0.00342658
-0.00356867
-0.0036116
-0.00370426
-0.00394948
-0.00424569
-0.00439343
-0.00432309
-0.00416805
-0.00414788
-0.0043745
-0.00477759
-0.00516377
-0.00263877
-0.00267434
-0.00275101
-0.0028843
-0.00301141
-0.00311024
-0.00325657
-0.00346358
-0.00363272
-0.00370729
-0.00377629
-0.0039534
-0.00421206
-0.00440235
-0.00441979
-0.00431749
-0.004259
-0.00437818
-0.00467354
-0.00502213
-0.00269191
-0.00273097
-0.00280613
-0.00293351
-0.00306992
-0.0031785
-0.003311
-0.00349996
-0.0036812
-0.00378629
-0.00385441
-0.00398326
-0.00419388
-0.00439295
-0.00447419
-0.00443536
-0.00437982
-0.00443024
-0.00462872
-0.00491286
-0.00274385
-0.00278594
-0.00286131
-0.00298246
-0.00312326
-0.00324274
-0.00336852
-0.00353888
-0.00372035
-0.00384863
-0.00392842
-0.00403018
-0.00419596
-0.00438132
-0.00449982
-0.00451765
-0.00448858
-0.00450695
-0.00463219
-0.00484676
-0.00279423
-0.00283863
-0.0029153
-0.00303107
-0.00317225
-0.00330122
-0.00342606
-0.00358096
-0.0037551
-0.00389757
-0.00399272
-0.00408405
-0.00421598
-0.0043775
-0.00451004
-0.00456995
-0.00457489
-0.00458806
-0.004667
-0.00482157
-0.00284252
-0.00288848
-0.00296686
-0.00307871
-0.00321772
-0.0033534
-0.00348085
-0.00362498
-0.00378852
-0.00393683
-0.00404589
-0.00413708
-0.00424767
-0.00438491
-0.00451577
-0.00460145
-0.00463763
-0.00466068
-0.00471668
-0.00482761
-0.00288806
-0.00293491
-0.00301492
-0.00312435
-0.00326008
-0.00339945
-0.00353079
-0.00366877
-0.00382182
-0.00396978
-0.00408884
-0.00418478
-0.00428429
-0.00440192
-0.00452339
-0.00462069
-0.00468069
-0.00471933
-0.00476882
-0.00485296
-0.00293001
-0.00297728
-0.00305854
-0.00316679
-0.00329921
-0.00343977
-0.00357469
-0.00371003
-0.00385461
-0.00399881
-0.00412344
-0.00422536
-0.00432073
-0.00442478
-0.00453493
-0.00463429
-0.00470923
-0.00476334
-0.00481582
-0.00488678
-0.00296742
-0.00301486
-0.00309691
-0.00320475
-0.00333444
-0.00347462
-0.00361212
-0.00374688
-0.00388552
-0.00402483
-0.00415146
-0.00425859
-0.00435397
-0.00444999
-0.00455002
-0.00464619
-0.00472832
-0.00479441
-0.0048538
-0.00492068
-0.00299917
-0.00304679
-0.00312936
-0.00323716
-0.00336481
-0.00350389
-0.00364291
-0.00377804
-0.00391291
-0.00404754
-0.00417386
-0.00428467
-0.00438214
-0.00447472
-0.00456772
-0.00465891
-0.00474244
-0.00481539
-0.00488135
-0.00494882
-0.00302392
-0.00307198
-0.00315511
-0.00326323
-0.00338965
-0.00352746
-0.00366709
-0.00380283
-0.00393551
-0.00406623
-0.00419082
-0.00430349
-0.00440346
-0.00449572
-0.0045855
-0.00467342
-0.00475617
-0.00483109
-0.00489982
-0.00496807
-0.00303985
-0.003089
-0.00317308
-0.00328225
-0.0034088
-0.00354622
-0.00368627
-0.00382275
-0.00395478
-0.00408325
-0.00420588
-0.00431819
-0.00441866
-0.00451067
-0.00459919
-0.00468634
-0.0047705
-0.00484907
-0.00492184
-0.00499204
0.00989913
0.0044182
-0.00344674
-0.00911926
-0.010749
-0.0100872
-0.00912839
-0.00853053
-0.00826869
-0.00819635
-0.00820903
-0.00824828
-0.00828474
-0.00830904
-0.0083241
-0.00833698
-0.00835341
-0.00837606
-0.00840512
-0.00843912
-0.00847495
-0.0085095
-0.00854261
-0.00857772
-0.00861875
-0.00866657
-0.00871844
-0.00877074
-0.00882254
-0.00887626
-0.00893479
-0.00899816
-0.00906341
-0.00912741
-0.00918955
-0.00925184
-0.00931616
-0.00938197
-0.00944635
-0.00950693
-0.00956422
-0.00962043
-0.00967675
-0.00973174
-0.00978318
-0.00983113
-0.00987747
-0.00992319
-0.0099672
-0.0100078
-0.0100452
-0.0100806
-0.0101146
-0.0101462
-0.0101754
-0.0102029
-0.0102294
-0.0102549
-0.0102789
-0.0103017
-0.010324
-0.010346
-0.010368
-0.0103901
-0.0104124
-0.0104349
-0.0104574
-0.0104804
-0.0105043
-0.0105291
-0.0105546
-0.0105807
-0.0106075
-0.0106353
-0.0106642
-0.010694
-0.0107245
-0.0107558
-0.010788
-0.0108212
-0.0108552
-0.0108899
-0.0109254
-0.0109618
-0.0109989
-0.0110369
-0.0110755
-0.0111149
-0.0111549
-0.0111957
-0.0112372
-0.0112794
-0.0113222
-0.0113657
-0.0114098
-0.0114546
-0.0115
-0.011546
-0.0115926
-0.0116399
-0.0116877
-0.0117362
-0.0117852
-0.0118349
-0.0118851
-0.0119359
-0.0119874
-0.0120394
-0.012092
-0.0121453
-0.0121991
-0.0122535
-0.0123085
-0.0123641
-0.0124202
-0.012477
-0.0125343
-0.0125922
-0.0126507
-0.0127097
-0.0127693
-0.0128294
-0.0128902
-0.0129515
-0.0130134
-0.0130759
-0.0131389
-0.0132026
-0.0132668
-0.0133316
-0.013397
-0.013463
-0.0135296
-0.0135968
-0.0136647
-0.0137331
-0.0138022
-0.0138719
-0.0139423
-0.0140132
-0.0140849
-0.0141571
-0.0142301
-0.0143037
-0.0143779
-0.0144528
-0.0145284
-0.0146048
-0.0146817
-0.0147594
-0.0148377
-0.0149169
-0.0149965
-0.0150773
-0.0151582
-0.0152406
-0.0153229
-0.0154069
-0.0154905
-0.0155762
-0.0156613
-0.0157484
-0.0158353
-0.0159237
-0.0160126
-0.016102
-0.0161932
-0.0162835
-0.0163771
-0.0164685
-0.0165639
-0.0166572
-0.0167538
-0.0168498
-0.0169468
-0.0170459
-0.0171435
-0.017245
-0.0173446
-0.0174469
-0.0175499
-0.0176523
-0.0177584
-0.0178624
-0.017969
-0.0180775
-0.0181829
-0.0182952
-0.0184024
-0.0185133
-0.0186271
-0.0187338
-0.0188511
-0.0189609
-0.0190698
-0.0191883
-0.0192896
-0.0193971
-0.0195016
-0.0195838
0.00918115
0.00424738
-0.0033662
-0.00898521
-0.0106699
-0.0100498
-0.00910496
-0.0085139
-0.0082565
-0.00818684
-0.00820113
-0.00824144
-0.0082787
-0.00830367
-0.00831931
-0.0083327
-0.00834959
-0.00837262
-0.00840201
-0.00843629
-0.00847236
-0.00850712
-0.0085404
-0.00857566
-0.00861682
-0.00866476
-0.00871674
-0.00876915
-0.00882104
-0.00887485
-0.00893346
-0.0089969
-0.00906223
-0.00912631
-0.00918852
-0.00925086
-0.00931525
-0.00938111
-0.00944555
-0.00950619
-0.00956353
-0.00961979
-0.00967615
-0.0097312
-0.00978268
-0.00983067
-0.00987704
-0.00992281
-0.00996685
-0.0100075
-0.0100449
-0.0100804
-0.0101143
-0.010146
-0.0101752
-0.0102027
-0.0102293
-0.0102548
-0.0102788
-0.0103016
-0.0103239
-0.0103459
-0.0103679
-0.01039
-0.0104124
-0.0104348
-0.0104574
-0.0104804
-0.0105042
-0.010529
-0.0105546
-0.0105807
-0.0106074
-0.0106352
-0.0106641
-0.0106939
-0.0107244
-0.0107558
-0.010788
-0.0108212
-0.0108552
-0.0108899
-0.0109254
-0.0109618
-0.0109989
-0.0110368
-0.0110755
-0.0111148
-0.0111549
-0.0111957
-0.0112372
-0.0112794
-0.0113222
-0.0113657
-0.0114098
-0.0114546
-0.0115
-0.011546
-0.0115926
-0.0116399
-0.0116877
-0.0117362
-0.0117852
-0.0118349
-0.0118851
-0.0119359
-0.0119874
-0.0120394
-0.0120921
-0.0121453
-0.0121991
-0.0122535
-0.0123085
-0.0123641
-0.0124202
-0.012477
-0.0125343
-0.0125922
-0.0126507
-0.0127097
-0.0127693
-0.0128295
-0.0128902
-0.0129515
-0.0130134
-0.0130759
-0.0131389
-0.0132026
-0.0132668
-0.0133316
-0.013397
-0.013463
-0.0135296
-0.0135968
-0.0136647
-0.0137331
-0.0138022
-0.0138719
-0.0139423
-0.0140132
-0.0140849
-0.0141571
-0.0142301
-0.0143037
-0.0143779
-0.0144528
-0.0145284
-0.0146048
-0.0146817
-0.0147594
-0.0148377
-0.0149169
-0.0149965
-0.0150773
-0.0151582
-0.0152406
-0.0153229
-0.0154069
-0.0154905
-0.0155762
-0.0156613
-0.0157484
-0.0158353
-0.0159237
-0.0160126
-0.016102
-0.0161932
-0.0162835
-0.0163771
-0.0164685
-0.0165639
-0.0166572
-0.0167538
-0.0168498
-0.0169468
-0.0170459
-0.0171435
-0.017245
-0.0173446
-0.0174469
-0.0175499
-0.0176523
-0.0177584
-0.0178624
-0.017969
-0.0180775
-0.0181829
-0.0182952
-0.0184024
-0.0185133
-0.0186271
-0.0187338
-0.0188511
-0.0189609
-0.0190698
-0.0191883
-0.0192896
-0.0193971
-0.0195016
-0.0195838
0.00842876
0.00407949
-0.00319048
-0.00873202
-0.0105264
-0.00999355
-0.00907533
-0.00849165
-0.00823926
-0.00817369
-0.00819087
-0.00823308
-0.00827159
-0.00829743
-0.00831375
-0.00832775
-0.00834518
-0.00836871
-0.00839854
-0.00843318
-0.00846955
-0.00850456
-0.00853806
-0.00857351
-0.00861482
-0.0086629
-0.008715
-0.00876752
-0.00881951
-0.0088734
-0.0089321
-0.00899562
-0.00906102
-0.00912517
-0.00918745
-0.00924986
-0.0093143
-0.00938023
-0.00944472
-0.00950542
-0.00956281
-0.00961911
-0.00967552
-0.00973062
-0.00978214
-0.00983018
-0.00987659
-0.0099224
-0.00996647
-0.0100072
-0.0100446
-0.0100801
-0.0101141
-0.0101458
-0.010175
-0.0102025
-0.0102291
-0.0102546
-0.0102787
-0.0103015
-0.0103238
-0.0103458
-0.0103678
-0.0103899
-0.0104123
-0.0104347
-0.0104573
-0.0104803
-0.0105042
-0.010529
-0.0105546
-0.0105806
-0.0106074
-0.0106352
-0.0106641
-0.0106939
-0.0107244
-0.0107558
-0.010788
-0.0108212
-0.0108551
-0.0108899
-0.0109254
-0.0109618
-0.0109989
-0.0110368
-0.0110755
-0.0111148
-0.0111549
-0.0111957
-0.0112372
-0.0112794
-0.0113222
-0.0113657
-0.0114098
-0.0114546
-0.0115
-0.011546
-0.0115926
-0.0116399
-0.0116877
-0.0117362
-0.0117852
-0.0118349
-0.0118851
-0.0119359
-0.0119874
-0.0120394
-0.0120921
-0.0121453
-0.0121991
-0.0122535
-0.0123085
-0.0123641
-0.0124202
-0.012477
-0.0125343
-0.0125922
-0.0126507
-0.0127097
-0.0127693
-0.0128295
-0.0128902
-0.0129515
-0.0130134
-0.0130759
-0.0131389
-0.0132026
-0.0132668
-0.0133316
-0.013397
-0.013463
-0.0135296
-0.0135968
-0.0136647
-0.0137331
-0.0138022
-0.0138719
-0.0139423
-0.0140132
-0.0140849
-0.0141571
-0.0142301
-0.0143037
-0.0143779
-0.0144528
-0.0145284
-0.0146048
-0.0146817
-0.0147594
-0.0148377
-0.0149169
-0.0149965
-0.0150773
-0.0151582
-0.0152406
-0.0153229
-0.0154069
-0.0154905
-0.0155762
-0.0156613
-0.0157484
-0.0158353
-0.0159237
-0.0160126
-0.016102
-0.0161932
-0.0162835
-0.0163771
-0.0164685
-0.0165639
-0.0166572
-0.0167538
-0.0168498
-0.0169468
-0.0170459
-0.0171435
-0.017245
-0.0173446
-0.0174469
-0.0175499
-0.0176523
-0.0177584
-0.0178624
-0.017969
-0.0180775
-0.0181829
-0.0182952
-0.0184024
-0.0185133
-0.0186271
-0.0187338
-0.0188511
-0.0189609
-0.0190698
-0.0191883
-0.0192896
-0.0193971
-0.0195016
-0.0195838
0.00771687
0.00393414
-0.00294679
-0.0083979
-0.0103274
-0.00991416
-0.00903387
-0.00845901
-0.00821329
-0.00815435
-0.00817656
-0.00822197
-0.0082624
-0.00828942
-0.00830657
-0.00832126
-0.00833939
-0.00836361
-0.00839406
-0.00842922
-0.00846601
-0.00850138
-0.00853521
-0.00857095
-0.0086125
-0.00866076
-0.00871299
-0.00876563
-0.00881774
-0.00887176
-0.00893056
-0.00899416
-0.00905963
-0.00912386
-0.00918621
-0.0092487
-0.00931322
-0.0093792
-0.00944375
-0.00950449
-0.00956194
-0.00961829
-0.00967476
-0.0097299
-0.00978147
-0.00982956
-0.00987603
-0.00992188
-0.009966
-0.0100067
-0.0100442
-0.0100797
-0.0101137
-0.0101455
-0.0101747
-0.0102023
-0.0102289
-0.0102544
-0.0102785
-0.0103013
-0.0103236
-0.0103457
-0.0103677
-0.0103898
-0.0104122
-0.0104347
-0.0104572
-0.0104803
-0.0105041
-0.0105289
-0.0105545
-0.0105806
-0.0106074
-0.0106352
-0.0106641
-0.0106939
-0.0107244
-0.0107557
-0.010788
-0.0108212
-0.0108551
-0.0108899
-0.0109254
-0.0109618
-0.0109989
-0.0110368
-0.0110755
-0.0111148
-0.0111549
-0.0111957
-0.0112372
-0.0112794
-0.0113222
-0.0113657
-0.0114098
-0.0114546
-0.0115
-0.011546
-0.0115926
-0.0116399
-0.0116877
-0.0117362
-0.0117852
-0.0118349
-0.0118851
-0.0119359
-0.0119874
-0.0120394
-0.0120921
-0.0121453
-0.0121991
-0.0122535
-0.0123085
-0.0123641
-0.0124202
-0.012477
-0.0125343
-0.0125922
-0.0126507
-0.0127097
-0.0127693
-0.0128295
-0.0128902
-0.0129515
-0.0130134
-0.0130759
-0.0131389
-0.0132026
-0.0132668
-0.0133316
-0.013397
-0.013463
-0.0135296
-0.0135968
-0.0136647
-0.0137331
-0.0138022
-0.0138719
-0.0139423
-0.0140132
-0.0140849
-0.0141571
-0.0142301
-0.0143037
-0.0143779
-0.0144528
-0.0145284
-0.0146048
-0.0146817
-0.0147594
-0.0148377
-0.0149169
-0.0149965
-0.0150773
-0.0151582
-0.0152406
-0.0153229
-0.0154069
-0.0154905
-0.0155762
-0.0156613
-0.0157484
-0.0158353
-0.0159237
-0.0160126
-0.016102
-0.0161932
-0.0162835
-0.0163771
-0.0164685
-0.0165639
-0.0166572
-0.0167538
-0.0168498
-0.0169468
-0.0170459
-0.0171435
-0.017245
-0.0173446
-0.0174469
-0.0175499
-0.0176523
-0.0177584
-0.0178624
-0.017969
-0.0180775
-0.0181829
-0.0182952
-0.0184024
-0.0185133
-0.0186271
-0.0187338
-0.0188511
-0.0189609
-0.0190698
-0.0191883
-0.0192896
-0.0193971
-0.0195016
-0.0195838
0.00703609
0.00378027
-0.00268477
-0.00803533
-0.0101048
-0.00982472
-0.00898703
-0.00841911
-0.00817933
-0.0081283
-0.00815717
-0.00820697
-0.00825001
-0.0082786
-0.00829679
-0.00831235
-0.00833136
-0.00835651
-0.00838784
-0.00842373
-0.0084611
-0.00849698
-0.00853132
-0.00856754
-0.00860948
-0.00865798
-0.00871037
-0.00876315
-0.00881544
-0.00886964
-0.00892858
-0.00899227
-0.0090578
-0.00912209
-0.00918456
-0.00924717
-0.00931177
-0.00937781
-0.0094424
-0.0095032
-0.00956072
-0.00961714
-0.00967366
-0.00972884
-0.00978048
-0.00982863
-0.00987517
-0.00992109
-0.00996526
-0.010006
-0.0100436
-0.0100792
-0.0101132
-0.010145
-0.0101743
-0.0102019
-0.0102286
-0.0102541
-0.0102782
-0.0103011
-0.0103234
-0.0103454
-0.0103675
-0.0103897
-0.010412
-0.0104345
-0.0104571
-0.0104801
-0.010504
-0.0105289
-0.0105544
-0.0105805
-0.0106073
-0.0106351
-0.010664
-0.0106939
-0.0107244
-0.0107557
-0.010788
-0.0108211
-0.0108551
-0.0108898
-0.0109254
-0.0109618
-0.0109989
-0.0110368
-0.0110755
-0.0111148
-0.0111549
-0.0111957
-0.0112372
-0.0112794
-0.0113222
-0.0113657
-0.0114098
-0.0114546
-0.0115
-0.011546
-0.0115926
-0.0116399