/*--------------------------------*- C++ -*----------------------------------*\
| =========                 |                                                 |
| \\      /  F ield         | OpenFOAM: The Open Source CFD Toolbox           |
|  \\    /   O peration     | Version:  v2012                                 |
|   \\  /    A nd           | Website:  www.openfoam.com                      |
|    \\/     M anipulation  |                                                 |
\*---------------------------------------------------------------------------*/
FoamFile
{
    version     2.0;
    format      ascii;
    class       surfaceScalarField;
    location    "0.35";
    object      phi;
}
// * * * * * * * * * * * * * * * * * * * * * * * * * * * * * * * * * * * * * //

dimensions      [0 3 -1 0 0 0 0];
oriented        oriented;


internalField   nonuniform List<scalar> 
34900
(
1.19181e-06
5.20851e-07
1.15816e-06
1.54331e-08
1.14796e-06
-1.07547e-07
1.14821e-06
-2.76617e-08
1.1485e-06
5.67362e-08
1.13493e-06
2.87575e-08
1.14078e-06
-1.5905e-08
1.13293e-06
-2.34429e-09
1.14033e-06
4.01069e-08
1.13189e-06
2.34565e-08
1.13859e-06
5.02544e-08
1.12956e-06
1.93507e-08
1.1367e-06
4.75305e-08
1.12697e-06
1.60019e-08
1.13472e-06
4.81642e-08
1.1238e-06
1.46777e-08
1.13166e-06
5.65371e-08
1.11917e-06
1.25268e-08
1.12266e-06
7.67944e-08
1.86358e-08
1.08689e-06
1.24357e-06
5.01538e-07
1.21367e-06
4.53368e-08
1.20119e-06
-9.50625e-08
1.20285e-06
-2.9326e-08
1.20125e-06
5.83395e-08
1.19041e-06
3.9598e-08
1.19376e-06
-1.92558e-08
1.18924e-06
2.17279e-09
1.19298e-06
3.63648e-08
1.18943e-06
2.70136e-08
1.19084e-06
4.88443e-08
1.18873e-06
2.14577e-08
1.18791e-06
4.83513e-08
1.18843e-06
1.54759e-08
1.18409e-06
5.25091e-08
1.18871e-06
1.00537e-08
1.17775e-06
6.74982e-08
1.18776e-06
2.52348e-09
1.16402e-06
1.0053e-07
1.2978e-08
1.16968e-06
1.29611e-06
4.88209e-07
1.2739e-06
6.75444e-08
1.25633e-06
-7.749e-08
1.26051e-06
-3.35085e-08
1.25515e-06
6.37069e-08
1.25021e-06
4.4535e-08
1.24818e-06
-1.72224e-08
1.24949e-06
8.6286e-10
1.24713e-06
3.8717e-08
1.25061e-06
2.35377e-08
1.24541e-06
5.40401e-08
1.25051e-06
1.63578e-08
1.24306e-06
5.58086e-08
1.24992e-06
8.61686e-09
1.24071e-06
6.17189e-08
1.24842e-06
2.3446e-09
1.23806e-06
7.78522e-08
1.24339e-06
-2.80732e-09
1.23242e-06
1.11504e-07
2.46675e-08
1.22073e-06
1.35038e-06
4.81932e-07
1.33944e-06
7.84894e-08
1.31569e-06
-5.37494e-08
1.32127e-06
-3.90791e-08
1.3125e-06
7.24678e-08
1.31325e-06
4.37935e-08
1.30638e-06
-1.03536e-08
1.3115e-06
-4.25814e-09
1.30541e-06
4.48067e-08
1.31213e-06
1.68157e-08
1.3052e-06
6.09731e-08
1.31153e-06
1.00252e-08
1.30466e-06
6.26809e-08
1.3101e-06
3.17363e-09
1.30439e-06
6.74284e-08
1.30804e-06
-1.30766e-09
1.30388e-06
8.20132e-08
1.30319e-06
-2.11457e-09
1.29958e-06
1.15115e-07
4.02373e-08
1.28401e-06
1.40791e-06
4.8238e-07
1.40868e-06
7.77196e-08
1.38065e-06
-2.57209e-08
1.38537e-06
-4.3806e-08
1.37549e-06
8.23497e-08
1.37941e-06
3.98705e-08
1.37062e-06
-1.55495e-09
1.37584e-06
-9.48247e-09
1.36972e-06
5.09263e-08
1.37565e-06
1.08912e-08
1.3709e-06
6.57159e-08
1.37522e-06
5.70712e-09
1.37154e-06
6.63652e-08
1.3743e-06
4.09392e-10
1.37191e-06
6.98148e-08
1.3731e-06
-2.49683e-09
1.37161e-06
8.35021e-08
1.36887e-06
6.32908e-10
1.36728e-06
1.16698e-07
5.57562e-08
1.35176e-06
1.47028e-06
4.87777e-07
1.47999e-06
6.80046e-08
1.45168e-06
2.59327e-09
1.45362e-06
-4.57433e-08
1.44519e-06
9.07795e-08
1.44967e-06
3.53931e-08
1.44171e-06
6.39956e-09
1.44478e-06
-1.25526e-08
1.44041e-06
5.53012e-08
1.44419e-06
7.10671e-09
1.44201e-06
6.78969e-08
1.4445e-06
3.21737e-09
1.44291e-06
6.79566e-08
1.44434e-06
-1.01797e-09
1.44332e-06
7.08312e-08
1.44359e-06
-2.76708e-09
1.4431e-06
8.39928e-08
1.43913e-06
4.60239e-09
1.43895e-06
1.1688e-07
7.13082e-08
1.4234e-06
1.53861e-06
4.95384e-07
1.55291e-06
5.37089e-08
1.52826e-06
2.72411e-08
1.52686e-06
-4.43476e-08
1.52111e-06
9.6531e-08
1.5248e-06
3.17049e-08
1.51876e-06
1.24339e-08
1.5196e-06
-1.33857e-08
1.51669e-06
5.82088e-08
1.51882e-06
4.97564e-09
1.51799e-06
6.87284e-08
1.51959e-06
1.61279e-09
1.51884e-06
6.87124e-08
1.51972e-06
-1.89586e-09
1.51928e-06
7.12695e-08
1.51884e-06
-2.32915e-09
1.51915e-06
8.36867e-08
1.51384e-06
9.90874e-09
1.51491e-06
1.15805e-07
8.66637e-08
1.49956e-06
1.61301e-06
5.02499e-07
1.62789e-06
3.88325e-08
1.60902e-06
4.61103e-08
1.60523e-06
-4.05562e-08
1.60185e-06
9.99137e-08
1.60458e-06
2.89692e-08
1.60018e-06
1.68319e-08
1.59975e-06
-1.29534e-08
1.59751e-06
6.04537e-08
1.59872e-06
3.76682e-09
1.59827e-06
6.91706e-08
1.59945e-06
4.39315e-10
1.59902e-06
6.91415e-08
1.59947e-06
-2.3433e-09
1.59949e-06
7.12441e-08
1.59819e-06
-1.03039e-09
1.59931e-06
8.25708e-08
1.59265e-06
1.65687e-08
1.59466e-06
1.13797e-07
1.01328e-07
1.57999e-06
1.69274e-06
5.07338e-07
1.70571e-06
2.58588e-08
1.69258e-06
5.92382e-08
1.68796e-06
-3.59301e-08
1.68602e-06
1.01854e-07
1.68806e-06
2.69228e-08
1.68464e-06
2.0257e-08
1.68384e-06
-1.2158e-08
1.68181e-06
6.24808e-08
1.68251e-06
3.07394e-09
1.68207e-06
6.96029e-08
1.68288e-06
-3.62956e-10
1.68268e-06
6.93332e-08
1.68261e-06
-2.2651e-09
1.68316e-06
7.06891e-08
1.68087e-06
1.26599e-09
1.68278e-06
8.06543e-08
1.67491e-06
2.44428e-08
1.67747e-06
1.11233e-07
1.14778e-07
1.66402e-06
1.77678e-06
5.09283e-07
1.78696e-06
1.56705e-08
1.77826e-06
6.79432e-08
1.77402e-06
-3.16891e-08
1.77279e-06
1.03079e-07
1.77436e-06
2.5352e-08
1.77141e-06
2.3209e-08
1.7707e-06
-1.14499e-08
1.76882e-06
6.43655e-08
1.76916e-06
2.73469e-09
1.7687e-06
7.0062e-08
1.76907e-06
-7.32304e-10
1.76918e-06
6.92268e-08
1.76845e-06
-1.53908e-09
1.76963e-06
6.95063e-08
1.76628e-06
4.61698e-09
1.76892e-06
7.80105e-08
1.76012e-06
3.32449e-08
1.76281e-06
1.08545e-07
1.26529e-07
1.75106e-06
1.86447e-06
5.08557e-07
1.87203e-06
8.11325e-09
1.8662e-06
7.37742e-08
1.86282e-06
-2.83111e-08
1.86198e-06
1.03919e-07
1.86317e-06
2.41631e-08
1.86044e-06
2.59443e-08
1.8599e-06
-1.09158e-08
1.85823e-06
6.60425e-08
1.85826e-06
2.69498e-09
1.85789e-06
7.04414e-08
1.85775e-06
-5.97561e-10
1.85827e-06
6.87116e-08
1.85679e-06
-6.78532e-11
1.85868e-06
6.76249e-08
1.85431e-06
8.97842e-09
1.85751e-06
7.48123e-08
1.84819e-06
4.25645e-08
1.85054e-06
1.06198e-07
1.36195e-07
1.84087e-06
1.95568e-06
5.05718e-07
1.96115e-06
2.64344e-09
1.95701e-06
7.79106e-08
1.9544e-06
-2.56955e-08
1.95386e-06
1.04453e-07
1.9547e-06
2.33222e-08
1.9521e-06
2.85502e-08
1.95164e-06
-1.04597e-08
1.95025e-06
6.74353e-08
1.94998e-06
2.96074e-09
1.94983e-06
7.0592e-08
1.94913e-06
1.03615e-10
1.95017e-06
6.76698e-08
1.9479e-06
2.20206e-09
1.95049e-06
6.50383e-08
1.94527e-06
1.42e-08
1.94874e-06
7.13354e-08
1.93938e-06
5.19254e-08
1.94097e-06
1.0461e-07
1.43576e-07
1.93359e-06
2.0506e-06
5.01304e-07
2.05451e-06
-1.26011e-09
2.05138e-06
8.10391e-08
2.04919e-06
-2.35036e-08
2.04898e-06
1.04664e-07
2.04947e-06
2.28275e-08
2.04701e-06
3.10145e-08
2.04647e-06
-9.92646e-09
2.04543e-06
6.8478e-08
2.0448e-06
3.58577e-09
2.04503e-06
7.03666e-08
2.0437e-06
1.43026e-09
2.04537e-06
6.60066e-08
2.0423e-06
5.26743e-09
2.04551e-06
6.18247e-08
2.03968e-06
2.00367e-08
2.04308e-06
6.793e-08
2.03415e-06
6.08556e-08
2.03469e-06
1.04077e-07
1.48698e-07
2.02957e-06
2.14961e-06
4.95699e-07
2.1523e-06
-3.94865e-09
2.14987e-06
8.3465e-08
2.14776e-06
-2.13901e-08
2.14792e-06
1.04499e-07
2.14804e-06
2.2712e-08
2.14578e-06
3.32697e-08
2.14501e-06
-9.15631e-09
2.14439e-06
6.91017e-08
2.14332e-06
4.65706e-09
2.14404e-06
6.96393e-08
2.14204e-06
3.43243e-09
2.14437e-06
6.36762e-08
2.14058e-06
9.05568e-09
2.14425e-06
5.81538e-08
2.13811e-06
2.61768e-08
2.14107e-06
6.49718e-08
2.13298e-06
6.89467e-08
2.13233e-06
1.04732e-07
1.51791e-07
2.12923e-06
2.25306e-06
4.89131e-07
2.25472e-06
-5.61012e-09
2.25292e-06
8.52641e-08
2.25061e-06
-1.90777e-08
2.25122e-06
1.03883e-07
2.25089e-06
2.30433e-08
2.24894e-06
3.5219e-08
2.24779e-06
-8.00018e-09
2.24766e-06
6.92268e-08
2.24604e-06
6.27339e-09
2.24737e-06
6.83158e-08
2.24467e-06
6.13421e-09
2.24764e-06
6.07013e-08
2.24328e-06
1.34188e-08
2.24716e-06
5.42723e-08
2.24105e-06
3.22836e-08
2.24322e-06
6.28075e-08
2.23627e-06
7.58981e-08
2.23446e-06
1.06541e-07
1.53242e-07
2.23301e-06
2.36128e-06
4.81728e-07
2.36199e-06
-6.32158e-09
2.36086e-06
8.63931e-08
2.35813e-06
-1.63474e-08
2.35929e-06
1.02719e-07
2.35842e-06
2.39149e-08
2.35689e-06
3.67513e-08
2.35521e-06
-6.3217e-09
2.35567e-06
6.87701e-08
2.35342e-06
8.52157e-09
2.35539e-06
6.63454e-08
2.35202e-06
9.50691e-09
2.35553e-06
5.71913e-08
2.35082e-06
1.81319e-08
2.35461e-06
5.04805e-08
2.34885e-06
3.80388e-08
2.34996e-06
6.17013e-08
2.34429e-06
8.15628e-08
2.34154e-06
1.09292e-07
1.53527e-07
2.34126e-06
2.47457e-06
4.73557e-07
2.47434e-06
-6.09256e-09
2.47398e-06
8.67515e-08
2.47064e-06
-1.30114e-08
2.47247e-06
1.00895e-07
2.47095e-06
2.54335e-08
2.46995e-06
3.77525e-08
2.46763e-06
-4.00068e-09
2.46874e-06
6.76609e-08
2.4658e-06
1.14533e-08
2.46841e-06
6.37383e-08
2.46447e-06
1.34471e-08
2.46832e-06
5.33437e-08
2.46353e-06
2.2915e-08
2.46692e-06
4.70926e-08
2.46178e-06
4.31795e-08
2.4617e-06
6.17845e-08
2.45728e-06
8.59862e-08
2.45394e-06
1.12624e-07
1.53137e-07
2.45433e-06
2.5932e-06
4.64647e-07
2.592e-06
-4.88826e-09
2.59254e-06
8.62104e-08
2.58843e-06
-8.89869e-09
2.59103e-06
9.82965e-08
2.58875e-06
2.77067e-08
2.58839e-06
3.81174e-08
2.58533e-06
-9.44538e-10
2.58713e-06
6.58621e-08
2.58352e-06
1.50616e-08
2.58668e-06
6.05836e-08
2.58236e-06
1.7766e-08
2.58627e-06
4.94283e-08
2.58172e-06
2.74736e-08
2.58442e-06
4.43911e-08
2.58006e-06
4.75321e-08
2.57883e-06
6.30175e-08
2.57541e-06
8.94075e-08
2.57194e-06
1.16093e-07
1.525e-07
2.57258e-06
2.71747e-06
4.55004e-07
2.71522e-06
-2.64148e-09
2.71681e-06
8.46278e-08
2.71176e-06
-3.85161e-09
2.71525e-06
9.48075e-08
2.71212e-06
3.08324e-08
2.71248e-06
3.77635e-08
2.70864e-06
2.89599e-09
2.71111e-06
6.33909e-08
2.70691e-06
1.92622e-08
2.71043e-06
5.70596e-08
2.706e-06
2.2198e-08
2.70967e-06
4.5755e-08
2.7056e-06
3.15443e-08
2.70741e-06
4.25837e-08
2.7039e-06
5.10456e-08
2.70169e-06
6.52274e-08
2.69894e-06
9.21511e-08
2.69575e-06
1.19284e-07
1.51894e-07
2.69636e-06
2.84766e-06
4.44614e-07
2.84428e-06
7.38318e-10
2.84705e-06
8.18559e-08
2.84093e-06
2.27128e-09
2.84541e-06
9.03269e-08
2.84136e-06
3.48848e-08
2.84247e-06
3.66485e-08
2.83786e-06
7.5083e-09
2.84091e-06
6.03408e-08
2.83629e-06
2.38771e-08
2.83992e-06
5.34318e-08
2.83569e-06
2.64321e-08
2.83881e-06
4.26283e-08
2.83542e-06
3.49399e-08
2.83623e-06
4.17677e-08
2.83347e-06
5.38061e-08
2.83055e-06
6.81482e-08
2.82817e-06
9.4538e-08
2.82554e-06
1.21906e-07
1.51408e-07
2.82603e-06
2.98406e-06
4.33454e-07
2.97944e-06
5.3557e-09
2.98355e-06
7.77485e-08
2.97623e-06
9.58941e-09
2.98178e-06
8.47784e-08
2.97676e-06
3.98973e-08
2.97862e-06
3.47901e-08
2.97333e-06
1.2798e-08
2.97677e-06
5.68995e-08
2.97202e-06
2.863e-08
2.97542e-06
5.00338e-08
2.9717e-06
3.01548e-08
2.97403e-06
4.02983e-08
2.97137e-06
3.75933e-08
2.97123e-06
4.19094e-08
2.96902e-06
5.6016e-08
2.96569e-06
7.14773e-08
2.96341e-06
9.68198e-08
2.96148e-06
1.23835e-07
1.50962e-07
2.96193e-06
3.12697e-06
4.21493e-07
3.121e-06
1.13199e-08
3.12658e-06
7.21687e-08
3.11798e-06
1.81921e-08
3.12463e-06
7.8126e-08
3.11869e-06
4.58441e-08
3.12119e-06
3.22862e-08
3.11542e-06
1.8571e-08
3.11896e-06
5.33569e-08
3.11443e-06
3.3164e-08
3.11724e-06
4.72207e-08
3.11428e-06
3.31159e-08
3.11568e-06
3.88911e-08
3.11369e-06
3.95925e-08
3.11272e-06
4.28696e-08
3.11081e-06
5.79273e-08
3.10735e-06
7.49449e-08
3.10503e-06
9.91378e-08
3.10375e-06
1.2511e-07
1.50387e-07
3.10433e-06
3.2767e-06
4.08703e-07
3.26928e-06
1.87357e-08
3.27645e-06
6.49977e-08
3.26652e-06
2.81283e-08
3.27425e-06
7.03903e-08
3.26748e-06
5.26207e-08
3.27043e-06
2.93335e-08
3.26448e-06
2.45239e-08
3.26774e-06
5.00945e-08
3.26382e-06
3.70825e-08
3.26573e-06
4.53112e-08
3.26364e-06
3.52076e-08
3.26418e-06
3.83453e-08
3.2626e-06
4.11731e-08
3.261e-06
4.44757e-08
3.25916e-06
5.9768e-08
3.25576e-06
7.83447e-08
3.25337e-06
1.01525e-07
3.2526e-06
1.25876e-07
1.49517e-07
3.25347e-06
3.43357e-06
3.95062e-07
3.42461e-06
2.76942e-08
3.43346e-06
5.61474e-08
3.4222e-06
3.93919e-08
3.43092e-06
6.16681e-08
3.42352e-06
6.00225e-08
3.42661e-06
2.62416e-08
3.42089e-06
3.02509e-08
3.42343e-06
4.7546e-08
3.4205e-06
4.00143e-08
3.42129e-06
4.45208e-08
3.41998e-06
3.6516e-08
3.4199e-06
3.8427e-08
3.41843e-06
4.26502e-08
3.41633e-06
4.65711e-08
3.41439e-06
6.17058e-08
3.41119e-06
8.15458e-08
3.40879e-06
1.03931e-07
3.40835e-06
1.26315e-07
1.48272e-07
3.40959e-06
3.59792e-06
3.80555e-07
3.58735e-06
3.82619e-08
3.59792e-06
4.55768e-08
3.58541e-06
5.19026e-08
3.59492e-06
5.21552e-08
3.58722e-06
6.77229e-08
3.59002e-06
2.34393e-08
3.58501e-06
3.52708e-08
3.58642e-06
4.61333e-08
3.58471e-06
4.17208e-08
3.58438e-06
4.48488e-08
3.58357e-06
3.73334e-08
3.58317e-06
3.88258e-08
3.58151e-06
4.43117e-08
3.57902e-06
4.90529e-08
3.57687e-06
6.386e-08
3.57394e-06
8.44715e-08
3.57162e-06
1.06258e-07
3.57136e-06
1.26575e-07
1.46672e-07
3.57296e-06
3.77008e-06
3.6518e-07
3.75787e-06
5.04704e-08
3.77014e-06
3.33118e-08
3.75656e-06
6.54829e-08
3.76655e-06
4.21634e-08
3.759e-06
7.52742e-08
3.76099e-06
2.1448e-08
3.75718e-06
3.90783e-08
3.75712e-06
4.61992e-08
3.75664e-06
4.2192e-08
3.75549e-06
4.60051e-08
3.75469e-06
3.81329e-08
3.75425e-06
3.92642e-08
3.75225e-06
4.63067e-08
3.7494e-06
5.19066e-08
3.74696e-06
6.63019e-08
3.74433e-06
8.70964e-08
3.74221e-06
1.08381e-07
3.74205e-06
1.26739e-07
1.44804e-07
3.74391e-06
3.95042e-06
3.4895e-07
3.93659e-06
6.43019e-08
3.95043e-06
1.94675e-08
3.93608e-06
7.98385e-08
3.94611e-06
3.21286e-08
3.93926e-06
8.21235e-08
3.93988e-06
2.08281e-08
3.93773e-06
4.12274e-08
3.93604e-06
4.78946e-08
3.93654e-06
4.16883e-08
3.93503e-06
4.75132e-08
3.93375e-06
3.94105e-08
3.93339e-06
3.96298e-08
3.9311e-06
4.85934e-08
3.92782e-06
5.51858e-08
3.92507e-06
6.90528e-08
3.92271e-06
8.94585e-08
3.92093e-06
1.10158e-07
3.92083e-06
1.26839e-07
1.42759e-07
3.92288e-06
4.1393e-06
3.31897e-07
4.12393e-06
7.96763e-08
4.13913e-06
4.26702e-09
4.12442e-06
9.45493e-08
4.13394e-06
2.26039e-08
4.12843e-06
8.76409e-08
4.12713e-06
2.21243e-08
4.12691e-06
4.1444e-08
4.12374e-06
5.10727e-08
4.12469e-06
4.07383e-08
4.12339e-06
4.88043e-08
4.12125e-06
4.15521e-08
4.12082e-06
4.00608e-08
4.11846e-06
5.09564e-08
4.11471e-06
5.89389e-08
4.11164e-06
7.21178e-08
4.10947e-06
9.16252e-08
4.10815e-06
1.11477e-07
4.10814e-06
1.26854e-07
1.40589e-07
4.11031e-06
4.33713e-06
3.14074e-07
4.32036e-06
9.64368e-08
4.33657e-06
-1.19369e-08
4.32206e-06
1.09061e-07
4.33042e-06
1.42373e-08
4.32688e-06
9.11891e-08
4.32327e-06
2.57321e-08
4.32495e-06
3.97624e-08
4.32075e-06
5.52738e-08
4.32146e-06
4.00292e-08
4.32086e-06
4.9398e-08
4.31775e-06
4.46681e-08
4.31688e-06
4.09308e-08
4.31469e-06
5.31485e-08
4.31054e-06
6.30891e-08
4.30711e-06
7.55432e-08
4.30509e-06
9.36447e-08
4.30426e-06
1.12304e-07
4.30441e-06
1.26712e-07
1.38312e-07
4.30668e-06
4.54429e-06
2.9556e-07
4.52638e-06
1.1434e-07
4.5431e-06
-2.86538e-08
4.52947e-06
1.22696e-07
4.53598e-06
7.72797e-09
4.53494e-06
9.22232e-08
4.52889e-06
3.17875e-08
4.5321e-06
3.65487e-08
4.52758e-06
5.97914e-08
4.52733e-06
4.02788e-08
4.52767e-06
4.90615e-08
4.52381e-06
4.85256e-08
4.52201e-06
4.2731e-08
4.52012e-06
5.50379e-08
4.5158e-06
6.74121e-08
4.51198e-06
7.93588e-08
4.51005e-06
9.55743e-08
4.50968e-06
1.12678e-07
4.5101e-06
1.26294e-07
1.35927e-07
4.51248e-06
4.76121e-06
2.76462e-07
4.7425e-06
1.33051e-07
4.75911e-06
-4.52619e-08
4.74711e-06
1.34696e-07
4.7511e-06
3.73445e-09
4.75292e-06
9.04054e-08
4.74459e-06
4.01164e-08
4.74869e-06
3.24481e-08
4.74467e-06
6.38113e-08
4.74289e-06
4.20617e-08
4.74403e-06
4.79175e-08
4.73997e-06
5.25928e-08
4.73682e-06
4.58783e-08
4.73509e-06
5.6772e-08
4.73097e-06
7.15314e-08
4.72682e-06
8.35058e-08
4.72488e-06
9.75154e-08
4.72486e-06
1.12696e-07
4.72569e-06
1.25467e-07
1.33409e-07
4.7282e-06
4.98835e-06
2.56913e-07
4.96926e-06
1.5214e-07
4.98501e-06
-6.10133e-08
4.97545e-06
1.44257e-07
4.97637e-06
2.80989e-09
4.98111e-06
8.56635e-08
4.97102e-06
5.02067e-08
4.97514e-06
2.83371e-08
4.97239e-06
6.65562e-08
4.96878e-06
4.56705e-08
4.97031e-06
4.63905e-08
4.96661e-06
5.62962e-08
4.96201e-06
5.04686e-08
4.96002e-06
5.87712e-08
4.95645e-06
7.51005e-08
4.95219e-06
8.77637e-08
4.95013e-06
9.95735e-08
4.95032e-06
1.12504e-07
4.95165e-06
1.24138e-07
1.30698e-07
4.95436e-06
5.22616e-06
2.37072e-07
5.20719e-06
1.71102e-07
5.22129e-06
-7.51043e-08
5.21491e-06
1.50638e-07
5.21244e-06
5.27375e-09
5.21982e-06
7.82822e-08
5.20878e-06
6.12478e-08
5.21199e-06
2.51325e-08
5.211e-06
6.7538e-08
5.20571e-06
5.09618e-08
5.20693e-06
4.51703e-08
5.20405e-06
5.91818e-08
5.1983e-06
5.62188e-08
5.19554e-06
6.15241e-08
5.19262e-06
7.80294e-08
5.18862e-06
9.17629e-08
5.18641e-06
1.01784e-07
5.18665e-06
1.12262e-07
5.18847e-06
1.22317e-07
1.2769e-07
5.19148e-06
5.47514e-06
2.1712e-07
5.45688e-06
1.89367e-07
5.46849e-06
-8.67168e-08
5.46587e-06
1.5326e-07
5.46004e-06
1.1101e-08
5.4694e-06
6.8918e-08
5.45837e-06
7.22784e-08
5.45989e-06
2.36121e-08
5.46082e-06
6.66105e-08
5.4543e-06
5.74858e-08
5.45448e-06
4.4983e-08
5.45261e-06
6.10579e-08
5.44626e-06
6.25688e-08
5.44245e-06
6.53367e-08
5.43994e-06
8.05391e-08
5.43658e-06
9.51176e-08
5.43429e-06
1.04071e-07
5.43447e-06
1.12085e-07
5.43667e-06
1.20117e-07
1.24308e-07
5.44005e-06
5.73583e-06
1.97253e-07
5.71886e-06
2.06331e-07
5.72727e-06
-9.51282e-08
5.72867e-06
1.51866e-07
5.7199e-06
1.98727e-08
5.73036e-06
5.84545e-08
5.72025e-06
8.23849e-08
5.71956e-06
2.42997e-08
5.72222e-06
6.39576e-08
5.71511e-06
6.45917e-08
5.71363e-06
4.64607e-08
5.71276e-06
6.19331e-08
5.70639e-06
6.89382e-08
5.70144e-06
7.02847e-08
5.69907e-06
8.29145e-08
5.69655e-06
9.76351e-08
5.69436e-06
1.06257e-07
5.69444e-06
1.12003e-07
5.69687e-06
1.1769e-07
1.2055e-07
5.70063e-06
6.00878e-06
1.77669e-07
5.9937e-06
2.21404e-07
5.9984e-06
-9.9821e-08
6.00365e-06
1.46618e-07
5.99268e-06
3.08343e-08
6.00331e-06
4.78232e-08
5.99481e-06
9.08868e-08
5.99174e-06
2.73737e-08
5.99567e-06
6.00279e-08
5.98868e-06
7.15838e-08
5.98523e-06
4.99078e-08
5.98496e-06
6.2206e-08
5.97916e-06
7.47372e-08
5.97329e-06
7.61487e-08
5.97072e-06
8.54921e-08
5.96901e-06
9.9339e-08
5.96721e-06
1.08061e-07
5.9672e-06
1.12015e-07
5.96972e-06
1.1517e-07
1.16486e-07
5.97378e-06
6.29459e-06
1.58563e-07
6.28196e-06
2.34038e-07
6.28269e-06
-1.00549e-07
6.2912e-06
1.38104e-07
6.27901e-06
4.30259e-08
6.28898e-06
3.7852e-08
6.28249e-06
9.73737e-08
6.2771e-06
3.27664e-08
6.28172e-06
5.54105e-08
6.27548e-06
7.78255e-08
6.27004e-06
5.53496e-08
6.26979e-06
6.24543e-08
6.2651e-06
7.94264e-08
6.25868e-06
8.25662e-08
6.25563e-06
8.85394e-08
6.25456e-06
1.00412e-07
6.25341e-06
1.0921e-07
6.25338e-06
1.12044e-07
6.25587e-06
1.1268e-07
1.12237e-07
6.26012e-06
6.59392e-06
1.40111e-07
6.58414e-06
2.43818e-07
6.581e-06
-9.74093e-08
6.59183e-06
1.27281e-07
6.57945e-06
5.53976e-08
6.58811e-06
2.91951e-08
6.58379e-06
1.01696e-07
6.57636e-06
4.0195e-08
6.58104e-06
5.07333e-08
6.57597e-06
8.28911e-08
6.56886e-06
6.24646e-08
6.56799e-06
6.33215e-08
6.56467e-06
8.27413e-08
6.55823e-06
8.90075e-08
6.55463e-06
9.21446e-08
6.55387e-06
1.01172e-07
6.55355e-06
1.09527e-07
6.55368e-06
1.11913e-07
6.55601e-06
1.10355e-07
1.07944e-07
6.5603e-06
6.90744e-06
1.22461e-07
6.90074e-06
2.50515e-07
6.89414e-06
-9.0811e-08
6.9062e-06
1.15223e-07
6.89451e-06
6.70953e-08
6.90147e-06
2.22288e-08
6.8993e-06
1.03867e-07
6.8902e-06
4.92925e-08
6.89434e-06
4.65985e-08
6.89083e-06
8.64032e-08
6.88232e-06
7.09657e-08
6.88054e-06
6.51035e-08
6.87834e-06
8.49389e-08
6.87257e-06
9.47856e-08
6.86847e-06
9.6246e-08
6.86772e-06
1.01915e-07
6.86821e-06
1.09043e-07
6.86875e-06
1.11372e-07
6.87084e-06
1.08263e-07
1.03774e-07
6.87501e-06
7.23586e-06
1.0574e-07
7.23228e-06
2.54092e-07
7.22287e-06
-8.14045e-08
7.23516e-06
1.02931e-07
7.22463e-06
7.76259e-08
7.22981e-06
1.70508e-08
7.2297e-06
1.03978e-07
7.21926e-06
5.97366e-08
7.22234e-06
4.35149e-08
7.22067e-06
8.80779e-08
7.21131e-06
8.03189e-08
7.20817e-06
6.82426e-08
7.20689e-06
8.62226e-08
7.20223e-06
9.94427e-08
7.19788e-06
1.00598e-07
7.19699e-06
1.02807e-07
7.19804e-06
1.07996e-07
7.1992e-06
1.10211e-07
7.20113e-06
1.06333e-07
9.99203e-08
7.20498e-06
7.57992e-06
9.00507e-08
7.57934e-06
2.54671e-07
7.56787e-06
-6.9937e-08
7.57969e-06
9.11071e-08
7.5703e-06
8.70177e-08
7.57393e-06
1.3418e-08
7.57574e-06
1.02176e-07
7.56429e-06
7.11835e-08
7.5657e-06
4.21076e-08
7.56616e-06
8.76101e-08
7.55653e-06
8.99549e-08
7.55179e-06
7.29836e-08
7.55118e-06
8.68264e-08
7.54779e-06
1.02837e-07
7.5436e-06
1.04786e-07
7.54249e-06
1.03922e-07
7.54382e-06
1.06662e-07
7.54565e-06
1.08378e-07
7.54765e-06
1.04334e-07
9.65047e-08
7.55107e-06
7.94039e-06
7.54716e-08
7.94258e-06
2.5248e-07
7.92975e-06
-5.71041e-08
7.94079e-06
8.00684e-08
7.93222e-06
9.55863e-08
7.93448e-06
1.11573e-08
7.93819e-06
9.847e-08
7.92615e-06
8.32197e-08
7.9254e-06
4.28611e-08
7.92774e-06
8.52656e-08
7.91882e-06
9.88796e-08
7.91238e-06
7.94213e-08
7.91201e-06
8.7199e-08
7.90996e-06
1.04881e-07
7.90634e-06
1.08405e-07
7.90499e-06
1.05279e-07
7.90645e-06
1.052e-07
7.90883e-06
1.05991e-07
7.91112e-06
1.02048e-07
9.34688e-08
7.91416e-06
8.31808e-06
6.20698e-08
8.32274e-06
2.47827e-07
8.30914e-06
-4.35039e-08
8.31942e-06
6.97861e-08
8.31118e-06
1.03823e-07
8.31209e-06
1.02492e-08
8.31779e-06
9.27696e-08
8.30576e-06
9.52513e-08
8.30238e-06
4.62438e-08
8.306e-06
8.1639e-08
8.29887e-06
1.06011e-07
8.29094e-06
8.73553e-08
8.29021e-06
8.79253e-08
8.28956e-06
1.05533e-07
8.28681e-06
1.11151e-07
8.2853e-06
1.06791e-07
8.28676e-06
1.03745e-07
8.28956e-06
1.03186e-07
8.29222e-06
9.93889e-08
9.06696e-08
8.29502e-06
8.71382e-06
4.99069e-08
8.72062e-06
2.41028e-07
8.70665e-06
-2.95282e-08
8.71649e-06
5.99465e-08
8.7082e-06
1.12111e-07
8.70735e-06
1.10996e-08
8.71521e-06
8.49107e-08
8.70415e-06
1.06309e-07
8.69749e-06
5.2901e-08
8.7018e-06
7.73365e-08
8.6972e-06
1.10609e-07
8.68839e-06
9.61601e-08
8.68677e-06
8.9545e-08
8.68739e-06
1.04914e-07
8.68569e-06
1.12852e-07
8.68429e-06
1.0819e-07
8.68555e-06
1.02485e-07
8.68867e-06
1.00071e-07
8.69168e-06
9.63804e-08
8.79305e-08
8.69442e-06
9.12848e-06
3.9048e-08
9.13715e-06
2.32352e-07
9.1231e-06
-1.54705e-08
9.13254e-06
5.04997e-08
9.12468e-06
1.1997e-07
9.12115e-06
1.46338e-08
9.13107e-06
7.49949e-08
9.12202e-06
1.15352e-07
9.11221e-06
6.27172e-08
9.11602e-06
7.35222e-08
9.11426e-06
1.12368e-07
9.10563e-06
1.04791e-07
9.1028e-06
9.23764e-08
9.10428e-06
1.03429e-07
9.10386e-06
1.13278e-07
9.10276e-06
1.09285e-07
9.10373e-06
1.01515e-07
9.10696e-06
9.68417e-08
9.11026e-06
9.30853e-08
8.51443e-08
9.11304e-06
9.56294e-06
2.95646e-08
9.57333e-06
2.21967e-07
9.55918e-06
-1.32487e-09
9.56843e-06
4.12467e-08
9.56173e-06
1.26677e-07
9.55463e-06
2.17304e-08
9.5659e-06
6.37279e-08
9.56021e-06
1.21041e-07
9.54781e-06
7.51139e-08
9.54977e-06
7.15614e-08
9.55069e-06
1.11451e-07
9.54342e-06
1.12063e-07
9.53941e-06
9.63873e-08
9.54107e-06
1.01765e-07
9.54215e-06
1.12204e-07
9.54157e-06
1.09865e-07
9.54225e-06
1.00828e-07
9.54532e-06
9.37798e-08
9.54893e-06
8.94751e-08
8.23045e-08
9.55177e-06
1.00182e-05
2.15348e-08
1.00301e-05
2.10006e-07
1.00159e-05
1.28849e-08
1.00249e-05
3.22646e-08
1.00202e-05
1.31346e-07
1.00092e-05
3.27369e-08
1.00204e-05
5.25219e-08
1.00193e-05
1.22214e-07
1.00055e-05
8.88571e-08
1.00044e-05
7.26486e-08
1.00074e-05
1.0848e-07
1.00024e-05
1.17099e-07
9.99755e-06
1.01194e-07
9.99897e-06
1.00348e-07
1.00012e-05
1.0995e-07
1.00016e-05
1.09481e-07
1.00021e-05
1.00338e-07
1.00048e-05
9.11212e-08
1.00085e-05
8.57013e-08
7.92576e-08
1.00116e-05
1.04952e-05
1.50244e-08
1.05086e-05
1.96537e-07
1.04943e-05
2.71606e-08
1.05027e-05
2.38778e-08
1.05009e-05
1.33127e-07
1.04866e-05
4.70973e-08
1.04957e-05
4.34188e-08
1.04995e-05
1.18405e-07
1.04863e-05
1.02063e-07
1.04817e-05
7.72079e-08
1.04855e-05
1.04765e-07
1.0483e-05
1.19564e-07
1.04784e-05
1.05827e-07
1.04791e-05
9.96367e-08
1.04821e-05
1.0692e-07
1.04836e-05
1.07964e-07
1.04843e-05
9.96969e-08
1.04864e-05
8.90057e-08
1.049e-05
8.20448e-08
7.59045e-08
1.04934e-05
1.0995e-05
1.00747e-08
1.10099e-05
1.81606e-07
1.09956e-05
4.14358e-08
1.10028e-05
1.67108e-08
1.10047e-05
1.31189e-07
1.0988e-05
6.37898e-08
1.09932e-05
3.82666e-08
1.10014e-05
1.10229e-07
1.09909e-05
1.12509e-07
1.09833e-05
8.47816e-08
1.09861e-05
1.02016e-07
1.09861e-05
1.19517e-07
1.09825e-05
1.09419e-07
1.09825e-05
9.96794e-08
1.09859e-05
1.03492e-07
1.09884e-05
1.05494e-07
1.09896e-05
9.8546e-08
1.09912e-05
8.73486e-08
1.09945e-05
7.87951e-08
7.23522e-08
1.0998e-05
1.15188e-05
6.66887e-09
1.15349e-05
1.65438e-07
1.15211e-05
5.53043e-08
1.15262e-05
1.15945e-08
1.15321e-05
1.25272e-07
1.15149e-05
8.10246e-08
1.15147e-05
3.8417e-08
1.15257e-05
9.92824e-08
1.15198e-05
1.18379e-07
1.15104e-05
9.41792e-08
1.15111e-05
1.01301e-07
1.15129e-05
1.17716e-07
1.15108e-05
1.11558e-07
1.15106e-05
9.98782e-08
1.15139e-05
1.00214e-07
1.15171e-05
1.02208e-07
1.15188e-05
9.68415e-08
1.15203e-05
8.5914e-08
1.15229e-05
7.6142e-08
6.8953e-08
1.15263e-05
1.20678e-05
4.71788e-09
1.20848e-05
1.48366e-07
1.2072e-05
6.81943e-08
1.20742e-05
9.34041e-09
1.20838e-05
1.15706e-07
1.2068e-05
9.67749e-08
1.20623e-05
4.41027e-08
1.20737e-05
8.79285e-08
1.20731e-05
1.18981e-07
1.20639e-05
1.0333e-07
1.20623e-05
1.02912e-07
1.20645e-05
1.15586e-07
1.2064e-05
1.1201e-07
1.20641e-05
9.97763e-08
1.20672e-05
9.71191e-08
1.2071e-05
9.84589e-08
1.20733e-05
9.45328e-08
1.20746e-05
8.45607e-08
1.20767e-05
7.40175e-08
6.60659e-08
1.20796e-05
1.26433e-05
4.04654e-09
1.26607e-05
1.30918e-07
1.26496e-05
7.93257e-08
1.26484e-05
1.05622e-08
1.26605e-05
1.03542e-07
1.26483e-05
1.09018e-07
1.2638e-05
5.44022e-08
1.2647e-05
7.8884e-08
1.26513e-05
1.14752e-07
1.26447e-05
1.09856e-07
1.26411e-05
1.06518e-07
1.26425e-05
1.14196e-07
1.26434e-05
1.11156e-07
1.2644e-05
9.91874e-08
1.26472e-05
9.38957e-08
1.26511e-05
9.4504e-08
1.2654e-05
9.16854e-08
1.26555e-05
8.30905e-08
1.2657e-05
7.24268e-08
6.37662e-08
1.26593e-05
1.32466e-05
4.4079e-09
1.32638e-05
1.13733e-07
1.32551e-05
8.79419e-08
1.32503e-05
1.54345e-08
1.32635e-05
9.02832e-08
1.32563e-05
1.16207e-07
1.32429e-05
6.78285e-08
1.32479e-05
7.3872e-08
1.32554e-05
1.07271e-07
1.3253e-05
1.12304e-07
1.32488e-05
1.10697e-07
1.32489e-05
1.1409e-07
1.325e-05
1.10006e-07
1.32514e-05
9.78596e-08
1.32547e-05
9.05711e-08
1.3259e-05
9.01429e-08
1.32623e-05
8.84715e-08
1.3264e-05
8.1325e-08
1.32652e-05
7.1291e-08
6.21384e-08
1.32668e-05
1.38791e-05
5.49391e-09
1.38953e-05
9.75363e-08
1.38898e-05
9.34142e-08
1.38817e-05
2.35592e-08
1.38943e-05
7.7672e-08
1.38927e-05
1.17751e-07
1.38784e-05
8.21682e-08
1.38786e-05
7.3671e-08
1.38872e-05
9.86817e-08
1.38889e-05
1.10609e-07
1.38863e-05
1.1329e-07
1.38851e-05
1.15299e-07
1.38857e-05
1.09439e-07
1.38874e-05
9.60742e-08
1.38909e-05
8.709e-08
1.38958e-05
8.53078e-08
1.38995e-05
8.47606e-08
1.39014e-05
7.93708e-08
1.39024e-05
7.0276e-08
6.12139e-08
1.39034e-05
1.45422e-05
6.96987e-09
1.45567e-05
8.29857e-08
1.45547e-05
9.54756e-08
1.45443e-05
3.39254e-08
1.45546e-05
6.74111e-08
1.45582e-05
1.14075e-07
1.45454e-05
9.50365e-08
1.45412e-05
7.78714e-08
1.45485e-05
9.1409e-08
1.45537e-05
1.05396e-07
1.45541e-05
1.1289e-07
1.45526e-05
1.16762e-07
1.45522e-05
1.09856e-07
1.45535e-05
9.48052e-08
1.45572e-05
8.33011e-08
1.45623e-05
8.02058e-08
1.45669e-05
8.02187e-08
1.45691e-05
7.71475e-08
1.45699e-05
6.9454e-08
6.06424e-08
1.45705e-05
1.52373e-05
8.50823e-09
1.52498e-05
7.0571e-08
1.52509e-05
9.43331e-08
1.52397e-05
4.50892e-08
1.52464e-05
6.07294e-08
1.52538e-05
1.06707e-07
1.52447e-05
1.04076e-07
1.52373e-05
8.53519e-08
1.52415e-05
8.71432e-08
1.52488e-05
9.80849e-08
1.52524e-05
1.09306e-07
1.52525e-05
1.1664e-07
1.52512e-05
1.11165e-07
1.52514e-05
9.46707e-08
1.52547e-05
7.99683e-08
1.52602e-05
7.47269e-08
1.52654e-05
7.50012e-08
1.52686e-05
7.39891e-08
1.52693e-05
6.87438e-08
6.03269e-08
1.52696e-05
1.5966e-05
9.82559e-09
1.5976e-05
6.06294e-08
1.59798e-05
9.04535e-08
1.59693e-05
5.55994e-08
1.59719e-05
5.81804e-08
1.59811e-05
9.74839e-08
1.59771e-05
1.08085e-07
1.59683e-05
9.41875e-08
1.59689e-05
8.6474e-08
1.59763e-05
9.07465e-08
1.59826e-05
1.02947e-07
1.59855e-05
1.13776e-07
1.59843e-05
1.12324e-07
1.59833e-05
9.57125e-08
1.59851e-05
7.8158e-08
1.59906e-05
6.92416e-08
1.59963e-05
6.92412e-08
1.60006e-05
6.97132e-08
1.60021e-05
6.72348e-08
6.03063e-08
1.60021e-05
1.67297e-05
1.0716e-08
1.67371e-05
5.32255e-08
1.6743e-05
8.461e-08
1.67343e-05
6.42722e-08
1.67332e-05
5.92807e-08
1.67422e-05
8.84713e-08
1.67431e-05
1.07143e-07
1.67354e-05
1.01971e-07
1.67327e-05
8.91193e-08
1.67382e-05
8.52628e-08
1.67464e-05
9.47852e-08
1.67521e-05
1.0806e-07
1.67527e-05
1.1171e-07
1.67508e-05
9.75919e-08
1.67509e-05
7.80794e-08
1.67551e-05
6.50661e-08
1.67614e-05
6.29028e-08
1.67665e-05
6.46218e-08
1.67695e-05
6.42611e-08
5.98699e-08
1.67699e-05
1.753e-05
1.10852e-08
1.75351e-05
4.80921e-08
1.75419e-05
7.78223e-08
1.75359e-05
7.02782e-08
1.75323e-05
6.2917e-08
1.75394e-05
8.13105e-08
1.75441e-05
1.0248e-07
1.75395e-05
1.06522e-07
1.75346e-05
9.40837e-08
1.75373e-05
8.25349e-08
1.75456e-05
8.64439e-08
1.75537e-05
1.00051e-07
1.75571e-05
1.08287e-07
1.75555e-05
9.91892e-08
1.75541e-05
7.94329e-08
1.75561e-05
6.3048e-08
1.75621e-05
5.69628e-08
1.75681e-05
5.85732e-08
1.75723e-05
6.01222e-08
5.81638e-08
1.7574e-05
1.83685e-05
1.0958e-08
1.83718e-05
4.48046e-08
1.83786e-05
7.09889e-08
1.83756e-05
7.3283e-08
1.83707e-05
6.77611e-08
1.83752e-05
7.68445e-08
1.83819e-05
9.57802e-08
1.83815e-05
1.06928e-07
1.83761e-05
9.94987e-08
1.8376e-05
8.26563e-08
1.83828e-05
7.95902e-08
1.83922e-05
9.06759e-08
1.83984e-05
1.02061e-07
1.83986e-05
9.89667e-08
1.83964e-05
8.16875e-08
1.83965e-05
6.29216e-08
1.84006e-05
5.28322e-08
1.84072e-05
5.20316e-08
1.84123e-05
5.5017e-08
5.51759e-08
1.84153e-05
1.92469e-05
1.04539e-08
1.9249e-05
4.27193e-08
1.92551e-05
6.49131e-08
1.92548e-05
7.35066e-08
1.92502e-05
7.23758e-08
1.92519e-05
7.51733e-08
1.92589e-05
8.87678e-08
1.92623e-05
1.0353e-07
1.92586e-05
1.03157e-07
1.92561e-05
8.51666e-08
1.92605e-05
7.51744e-08
1.927e-05
8.12318e-08
1.92782e-05
9.38025e-08
1.92812e-05
9.59712e-08
1.92794e-05
8.35511e-08
1.9278e-05
6.43288e-08
1.928e-05
5.08476e-08
1.92855e-05
4.6524e-08
1.92916e-05
4.89057e-08
5.13571e-08
1.92954e-05
2.01671e-05