/*--------------------------------*- C++ -*----------------------------------*\
| =========                 |                                                 |
| \\      /  F ield         | OpenFOAM: The Open Source CFD Toolbox           |
|  \\    /   O peration     | Version:  v2012                                 |
|   \\  /    A nd           | Website:  www.openfoam.com                      |
|    \\/     M anipulation  |                                                 |
\*---------------------------------------------------------------------------*/
FoamFile
{
    version     2.0;
    format      ascii;
    class       volScalarField;
    location    "0.3";
    object      p;
}
// * * * * * * * * * * * * * * * * * * * * * * * * * * * * * * * * * * * * * //

dimensions      [0 2 -2 0 0 0 0];


internalField   nonuniform List<scalar> 
17600
(
4.91989e-11
-0.0014107
-0.00071627
-0.00125997
-0.00109161
-0.0017726
-0.00207239
-0.00186878
-0.00198651
-0.00139806
-0.00144304
-0.00148787
-0.00142895
-0.00110603
-0.000942802
-0.000205967
0.00046743
0.00180508
0.00319846
0.00636034
-1.41147e-07
-0.00141191
-0.000715174
-0.00126436
-0.00108871
-0.00177843
-0.0020702
-0.00187284
-0.0019858
-0.00140018
-0.00144175
-0.00149139
-0.00142628
-0.00111325
-0.000938571
-0.000224004
0.000476217
0.00174533
0.00321309
0.00605939
-1.18921e-06
-0.00141366
-0.000714988
-0.00127028
-0.00108454
-0.00178745
-0.00206472
-0.00187892
-0.00198406
-0.00140333
-0.00143963
-0.00149636
-0.00142258
-0.00112314
-0.000933619
-0.000245389
0.000485414
0.00168112
0.00321293
0.00564671
-3.55267e-06
-0.00141608
-0.000716464
-0.00127729
-0.00108178
-0.00179762
-0.00205781
-0.0018825
-0.00198197
-0.00140713
-0.00143739
-0.00150148
-0.00141928
-0.00113363
-0.000929372
-0.000267449
0.000492737
0.00161831
0.00318371
0.00524361
-7.35492e-06
-0.00141949
-0.000719033
-0.00128601
-0.00108005
-0.00180839
-0.00205014
-0.00188512
-0.00197985
-0.00141167
-0.00143487
-0.00150697
-0.00141585
-0.00114511
-0.000924819
-0.000291166
0.000498988
0.00155219
0.00312483
0.00486271
-1.25398e-05
-0.00142397
-0.000722171
-0.00129664
-0.00107847
-0.00181918
-0.00204167
-0.00188689
-0.00197761
-0.00141671
-0.00143189
-0.00151287
-0.00141194
-0.00115768
-0.000919847
-0.00031659
0.000503132
0.00148213
0.00303769
0.00450559
-1.88834e-05
-0.00142943
-0.000725581
-0.00130904
-0.00107664
-0.00182947
-0.00203241
-0.00188783
-0.00197515
-0.00142199
-0.00142851
-0.00151907
-0.00140773
-0.00117121
-0.00091495
-0.000343241
0.000503237
0.00140923
0.00292341
0.00416774
-2.60817e-05
-0.00143574
-0.000729132
-0.00132291
-0.0010745
-0.00183899
-0.00202253
-0.00188799
-0.00197247
-0.00142735
-0.0014249
-0.00152554
-0.00140356
-0.00118549
-0.000910837
-0.000370274
0.000497197
0.00133471
0.00278289
0.00384328
-3.38659e-05
-0.00144275
-0.00073282
-0.00133794
-0.0010721
-0.00184777
-0.00201225
-0.00188749
-0.00196973
-0.00143273
-0.00142122
-0.00153231
-0.00139976
-0.00120016
-0.000908331
-0.000396704
0.000483147
0.00125912
0.00261782
0.00352666
-4.2071e-05
-0.00145035
-0.000736716
-0.00135382
-0.00106955
-0.00185596
-0.00200179
-0.00188645
-0.00196706
-0.001438
-0.00141763
-0.00153931
-0.00139664
-0.00121477
-0.000908272
-0.000421764
0.000459631
0.00118226
0.00243115
0.00321333
-5.06358e-05
-0.00145847
-0.000740901
-0.00137034
-0.00106699
-0.00186371
-0.00199136
-0.0018849
-0.00196459
-0.00144301
-0.00141426
-0.00154633
-0.00139458
-0.00122872
-0.000911459
-0.000445023
0.000425724
0.0011029
0.00222694
0.00290002
-5.95622e-05
-0.00146707
-0.000745437
-0.0013873
-0.00106451
-0.00187109
-0.00198114
-0.0018828
-0.00196245
-0.00144756
-0.0014113
-0.00155308
-0.00139407
-0.00124146
-0.000918574
-0.000466485
0.000381338
0.00101872
0.00200956
0.00258487
-6.88738e-05
-0.00147613
-0.000750377
-0.00140459
-0.00106223
-0.00187808
-0.00197132
-0.00188
-0.00196081
-0.00145141
-0.00140903
-0.00155916
-0.00139562
-0.0012526
-0.000930092
-0.00048678
0.000327402
0.000926928
0.00178267
0.0022672
-7.8596e-05
-0.00148563
-0.000755767
-0.00142208
-0.00106028
-0.00188459
-0.00196209
-0.00187634
-0.00195987
-0.00145455
-0.0014078
-0.0015642
-0.00139968
-0.00126197
-0.000946124
-0.000507328
0.000265684
0.000825269
0.0015486
0.00194709
-8.87506e-05
-0.00149555
-0.000761665
-0.00143969
-0.00105881
-0.00189051
-0.00195371
-0.00187157
-0.00195988
-0.00145609
-0.00140798
-0.0015679
-0.00140656
-0.0012697
-0.000966251
-0.000530293
0.000198019
0.00071269
0.00130853
0.00162533
-9.9359e-05
-0.00150587
-0.000768132
-0.0014573
-0.00105798
-0.00189568
-0.00194646
-0.00186541
-0.00196117
-0.00145597
-0.00140987
-0.00157015
-0.00141636
-0.00127637
-0.000989411
-0.000558107
0.000125234
0.000588969
0.00106311
0.00130285
-0.000110446
-0.00151657
-0.000775242
-0.0014748
-0.001058
-0.0018999
-0.00194069
-0.00185755
-0.00196409
-0.00145389
-0.00141365
-0.00157101
-0.00142883
-0.00128317
-0.00101398
-0.000592613
4.68013e-05
0.000455048
0.000812611
0.000979927
-0.000122041
-0.00152762
-0.000783081
-0.00149204
-0.0010591
-0.00190292
-0.00193677
-0.00184768
-0.00196898
-0.0014497
-0.00141933
-0.00157085
-0.00144327
-0.00129184
-0.00103839
-0.000634371
-3.84514e-05
0.000312717
0.000557696
0.000656272
-0.000134184
-0.001539
-0.000791758
-0.00150886
-0.00106156
-0.00190448
-0.00193512
-0.00183543
-0.0019761
-0.0014434
-0.00142669
-0.00157049
-0.00145843
-0.00130428
-0.00106201
-0.000683143
-0.00013221
0.000163774
0.000300309
0.000331659
-0.000146918
-0.00155066
-0.000801405
-0.00152507
-0.00106566
-0.00190427
-0.00193616
-0.00182055
-0.00198561
-0.00143523
-0.00143514
-0.00157117
-0.00147271
-0.00132192
-0.00108548
-0.000737873
-0.00023634
8.96697e-06
4.34384e-05
6.40941e-06
-0.000160301
-0.00156254
-0.000812181
-0.00154045
-0.00107177
-0.00190195
-0.00194032
-0.00180286
-0.0019975
-0.00142578
-0.00144364
-0.00157444
-0.00148457
-0.00134523
-0.00111034
-0.000796632
-0.000352078
-0.000152698
-0.000209991
-0.000318108
-0.000174407
-0.00157452
-0.00082428
-0.00155472
-0.00108024
-0.00189724
-0.00194796
-0.00178242
-0.00201159
-0.00141591
-0.00145084
-0.001582
-0.00149304
-0.00137378
-0.00113909
-0.000857224
-0.000479002
-0.00032349
-0.000457989
-0.00063917
-0.000189336
-0.00158647
-0.000837933
-0.00156764
-0.00109144
-0.00188989
-0.00195932
-0.0017596
-0.00202765
-0.00140668
-0.00145511
-0.00159533
-0.00149816
-0.00140658
-0.00117472
-0.000918156
-0.000614979
-0.00050558
-0.000700213
-0.000952785
-0.000205208
-0.0015982
-0.000853397
-0.00157894
-0.00110572
-0.00187969
-0.00197454
-0.001735
-0.00204336
-0.00139954
-0.00145472
-0.00161523
-0.00150101
-0.00144203
-0.00122033
-0.000979677
-0.000756346
-0.000699909
-0.000938241
-0.00125447
-0.000222177
-0.00160948
-0.000870941
-0.00158841
-0.00112344
-0.00186657
-0.00199352
-0.00170912
-0.00205775
-0.00139649
-0.00144836
-0.00164167
-0.00150392
-0.00147765
-0.00127847
-0.00104436
-0.000898426
-0.000905396
-0.00117497
-0.00154055
-0.000240431
-0.00162003
-0.000890845
-0.00159585
-0.00114481
-0.00185069
-0.00201591
-0.00168285
-0.00206934
-0.00139921
-0.00143551
-0.00167414
-0.00151015
-0.00151036
-0.0013496
-0.00111635
-0.00103727
-0.00111876
-0.00141376
-0.00180936
-0.000260181
-0.00162952
-0.000913389
-0.00160117
-0.00116994
-0.00183245
-0.00204108
-0.00165765
-0.00207657
-0.00140868
-0.00141647
-0.00171114
-0.00152329
-0.00153788
-0.0014316
-0.0012
-0.00117149
-0.0013352
-0.00165744
-0.00206234
-0.000281682
-0.00163761
-0.000938792
-0.00160437
-0.00119873
-0.00181253
-0.00206798
-0.00163488
-0.00207828
-0.00142551
-0.00139235
-0.00175031
-0.00154667
-0.00156013
-0.00152116
-0.00129835
-0.00130244
-0.00154948
-0.00190687
-0.00230388
-0.000305238
-0.00164395
-0.000967193
-0.00160564
-0.00123086
-0.00179185
-0.00209535
-0.00161574
-0.0020736
-0.00144983
-0.00136485
-0.00178913
-0.00158316
-0.00157886
-0.00161403
-0.00141227
-0.00143277
-0.00175703
-0.00216013
-0.00253996
-0.000331144
-0.0016482
-0.000998638
-0.0016054
-0.0012657
-0.00177137
-0.0021221
-0.00160125
-0.00206212
-0.00148142
-0.00133598
-0.00182495
-0.00163507
-0.00159726
-0.00170544
-0.00154111
-0.00156526
-0.00195412
-0.00241291
-0.00277602
-0.000359678
-0.00165015
-0.00103297
-0.00160423
-0.00130255
-0.00175204
-0.00214741
-0.00159222
-0.00204399
-0.00151973
-0.0013082
-0.00185501
-0.00170367
-0.00162002
-0.00179107
-0.00168267
-0.00170238
-0.00213768
-0.00265954
-0.0030154
-0.000391115
-0.0016497
-0.00106978
-0.00160291
-0.00134076
-0.00173421
-0.00217085
-0.0015893
-0.00201959
-0.00156367
-0.00128471
-0.00187679
-0.00178817
-0.00165321
-0.00186815
-0.00183252
-0.00184598
-0.00230563
-0.00289348
-0.00325846
-0.000425671
-0.00164686
-0.00110845
-0.00160235
-0.00137986
-0.00171821
-0.00219216
-0.00159294
-0.00198913
-0.00161181
-0.001269
-0.00188852
-0.00188542
-0.00170318
-0.00193723
-0.00198462
-0.00199722
-0.00245772
-0.00310721
-0.00350149
-0.000463461
-0.00164188
-0.00114815
-0.00160332
-0.0014195
-0.00170439
-0.00221149
-0.00160338
-0.00195277
-0.00166253
-0.00126471
-0.00189007
-0.00199082
-0.00177421
-0.00200228
-0.00213358
-0.00215657
-0.00259641
-0.00329317
-0.00373556
-0.000504502
-0.00163527
-0.0011879
-0.0016063
-0.00145952
-0.0016926
-0.00222898
-0.0016212
-0.00191096
-0.00171394
-0.00127576
-0.00188402
-0.00209811
-0.00186642
-0.00206796
-0.00227641
-0.0023235
-0.00272681
-0.0034471
-0.0039481
-0.000548711
-0.00162776
-0.0012268
-0.00161132
-0.00150039
-0.00168257
-0.00224409
-0.00164737
-0.00186506
-0.00176369
-0.00130516
-0.00187479
-0.0022012
-0.00197706
-0.00213777
-0.00241133
-0.00249623
-0.00285519
-0.00357049
-0.0041274
-0.000595905
-0.00162024
-0.00126407
-0.00161798
-0.00154292
-0.0016746
-0.00225585
-0.00168289
-0.00181771
-0.00180788
-0.00135344
-0.00186753
-0.00229643
-0.00210245
-0.00221269
-0.00253607
-0.0026722
-0.00298754
-0.00366999
-0.00426702
-0.000645709
-0.00161376
-0.00129928
-0.00162556
-0.00158783
-0.00166912
-0.00226293
-0.0017286
-0.00177245
-0.00184165
-0.00141897
-0.00186889
-0.0023831
-0.0022381
-0.00229231
-0.00264719
-0.00284772
-0.00312885
-0.00375513
-0.00436752
-0.000697599
-0.00160935
-0.00133246
-0.00163262
-0.00163576
-0.00166759
-0.00226353
-0.00178408
-0.00173414
-0.00186152
-0.00149824
-0.00188587
-0.0024629
-0.00237994
-0.00237715
-0.00274021
-0.00301594
-0.00328194
-0.00383664
-0.00443546
-0.000751042
-0.00160776
-0.0013645
-0.00163691
-0.00168635
-0.00167288
-0.00225605
-0.00184731
-0.00170903
-0.00186801
-0.00158454
-0.00192157
-0.00253874
-0.00252543
-0.00246894
-0.00281294
-0.00316566
-0.0034452
-0.00392567
-0.00448234
-0.000805502
-0.00160935
-0.00139682
-0.00163688
-0.00173855
-0.00168789
-0.0022403
-0.00191497
-0.00170239
-0.00186499
-0.00166964
-0.00197398
-0.00261581
-0.00267432
-0.00257035
-0.00286719
-0.00328434
-0.00360927
-0.00403096
-0.00452346
-0.000860618
-0.00161431
-0.00143086
-0.00163229
-0.00179016
-0.00171537
-0.00221647
-0.00198154
-0.00171611
-0.00185789
-0.0017481
-0.00203925
-0.00269658
-0.00282693
-0.00268517
-0.00290905
-0.00336416
-0.00375687
-0.00415339
-0.00457518
-0.000916074
-0.00162263
-0.0014682
-0.0016235
-0.00183728
-0.00175766
-0.00219119
-0.0020399
-0.00174856
-0.00185605
-0.00181895
-0.00211074
-0.00277844
-0.00298292
-0.00281662
-0.00294845
-0.00340451
-0.00386957
-0.00428139
-0.00464845
-0.000971657
-0.00163379
-0.00151051
-0.00161203
-0.00187469
-0.00181491
-0.00217207
-0.00208495
-0.0017954
-0.00186849
-0.00188516
-0.00218191
-0.00285793
-0.00313876
-0.00296656
-0.00299684
-0.00341346
-0.00393611
-0.00439362
-0.00474044
-0.00102756
-0.00164672
-0.00155876
-0.0016013
-0.00189713
-0.00188439
-0.00216819
-0.00211729
-0.00184824
-0.00189731
-0.00195204
-0.00225182
-0.00292943
-0.00328686
-0.00313399
-0.00306496
-0.00340653
-0.00395501
-0.00447058
-0.0048335
-0.00108418
-0.00166009
-0.00161286
-0.00159591
-0.00190267
-0.00196051
-0.00218666
-0.00214084
-0.00189743
-0.00193903
-0.00202724
-0.00232549
-0.00298866
-0.00341769
-0.00331155
-0.00316055
-0.00340067
-0.00393659
-0.00450146
-0.00490491
-0.00114189
-0.00167425
-0.00167197
-0.00159999
-0.0018913
-0.00203535
-0.00223099
-0.00216343
-0.00193583
-0.00198815
-0.00211512
-0.00240823
-0.00304027
-0.00352151
-0.00348322
-0.0032853
-0.00341276
-0.00389939
-0.00448813
-0.0049397
-0.00120112
-0.00168607
-0.0017344
-0.00161789
-0.00186599
-0.00209889
-0.00230018
-0.00219858
-0.00196326
-0.00203248
-0.00221242
-0.00250676
-0.00309348
-0.00359627
-0.00363188
-0.00342874
-0.00345637
-0.00386398
-0.00444634
-0.00493414
-0.00126246
-0.00169675
-0.00179728
-0.00165308
-0.00183269
-0.00214155
-0.00238894
-0.00226041
-0.00198651
-0.00205873
-0.00231011
-0.00262711
-0.00315699
-0.00364925
-0.00374513
-0.00356815
-0.00353341
-0.00385078
-0.00439648
-0.0048984
-0.00132615
-0.00170711
-0.00185676
-0.00170669
-0.00180006
-0.00215839
-0.00248707
-0.00235592
-0.00201656
-0.00206265
-0.00239418
-0.00276631
-0.0032445
-0.00369329
-0.00382007
-0.00368342
-0.00362682
-0.00387281
-0.00436074
-0.00485207
-0.00139239
-0.00171796
-0.00190945
-0.00177806
-0.00177758
-0.00214827
-0.00257972
-0.00248484
-0.00207006
-0.00204994
-0.00244675
-0.00290888
-0.00336735
-0.00374564
-0.00386364
-0.00376071
-0.00371137
-0.00392403
-0.00435829
-0.00481631
-0.00146132
-0.00173077
-0.00195243
-0.00186387
-0.00177472
-0.00211492
-0.00265148
-0.00264052
-0.00216377
-0.00203173
-0.00245596
-0.00303637
-0.00352159
-0.0038285
-0.00389451
-0.00379496
-0.00376637
-0.00397975
-0.00439208
-0.00481257
-0.00153254
-0.00174731
-0.00198466
-0.00195892
-0.00179892
-0.00206735
-0.00269034
-0.00281141
-0.00230675
-0.00202718
-0.00242259
-0.00312552
-0.00368964
-0.00395679
-0.00393833
-0.0037969
-0.00377634
-0.00401429
-0.00444227
-0.00485184
-0.0016052
-0.00176935
-0.0020069
-0.00205635
-0.00185353
-0.00201834
-0.00269194
-0.00297845
-0.00249761
-0.00206038
-0.00235995
-0.00315391
-0.00384852
-0.00412903
-0.00402323
-0.00379332
-0.0037389
-0.00400397
-0.00447922
-0.00492172
-0.00167824
-0.00179861
-0.00202138
-0.00214797
-0.00193747
-0.00198296
-0.00265724
-0.00311885
-0.00272511
-0.00215148
-0.00228906
-0.00311447
-0.00396717
-0.00432719
-0.00416656
-0.00381612
-0.00367525
-0.00393468
-0.00447359
-0.00498987
-0.00175067
-0.00183597
-0.00203169
-0.00222694
-0.00204583
-0.00197459
-0.00259371
-0.00321438
-0.00297283
-0.00231085
-0.00223992
-0.00301961
-0.00401506
-0.00452193
-0.00436888
-0.00389678
-0.0036188
-0.00381611
-0.00440124
-0.00502219
-0.00182147
-0.00188172
-0.00204216
-0.0022893
-0.00217103
-0.00200291
-0.00251617
-0.00325622
-0.00321627
-0.00253475
-0.00224346
-0.00289052
-0.00397894
-0.00467556
-0.00460797
-0.00405482
-0.00360746
-0.00368082
-0.0042588
-0.00498762
-0.0018898
-0.00193543
-0.00205749
-0.00233474
-0.00230203
-0.00207152
-0.00244394
-0.00324586
-0.0034263
-0.00280495
-0.0023225
-0.00276004
-0.00386554
-0.00475379
-0.00484801
-0.00428804
-0.00367577
-0.00356828
-0.00407157
-0.00486875
-0.00195528
-0.00199559
-0.0020818
-0.00236549
-0.00242648
-0.00217693
-0.00239576
-0.00319079
-0.00358058
-0.00309698
-0.00248383
-0.00266879
-0.00369522
-0.00473825
-0.00504767
-0.0045667
-0.00384173
-0.00352236
-0.00387774
-0.00467522
-0.00201802
-0.00206037
-0.0021175
-0.00238603
-0.00253447
-0.00231058
-0.00238605
-0.0031076
-0.00366886
-0.00338067
-0.00271574
-0.0026495
-0.0035028
-0.00462945
-0.00517049
-0.00485097
-0.00409445
-0.00357674
-0.00372327
-0.00444124
-0.00207849
-0.00212775
-0.0021653
-0.00240253
-0.00262098
-0.00246029
-0.00242207
-0.00301964
-0.00369259
-0.00362487
-0.00299442
-0.00271761
-0.00333448
-0.00444889
-0.00519364
-0.0050971
-0.00439795
-0.00373984
-0.00365183
-0.00420976
-0.00213756
-0.00219568
-0.00222423
-0.00242142
-0.00268591
-0.00261148
-0.00250218
-0.00295009
-0.0036625
-0.00380675
-0.00329001
-0.00287036
-0.0032282
-0.00423223
-0.0051157
-0.00526604
-0.00470935
-0.00399082
-0.00368855
-0.00403059
-0.00219608
-0.00226249
-0.00229211
-0.00244818
-0.00273288
-0.00275061
-0.00261711
-0.00291594
-0.00359721
-0.0039178
-0.00356843
-0.00308809
-0.00320503
-0.00402549
-0.00495955
-0.00533393
-0.00498216
-0.00429103
-0.00383228
-0.00394409
-0.00225484
-0.00232737
-0.00236603
-0.00248618
-0.00276747
-0.00286892
-0.00275384
-0.00292525
-0.00352165
-0.00396347
-0.0038008
-0.00334217
-0.00326909
-0.00386775
-0.00475976
-0.00530115
-0.00517792
-0.00459622
-0.00405792
-0.00396619
-0.00231453
-0.00239018
-0.00244254
-0.00253633
-0.00279662
-0.00296354
-0.00289721
-0.00297685
-0.00345933
-0.00395826
-0.00397139
-0.00359935
-0.00340607
-0.00378316
-0.00455878
-0.00519116
-0.00527777
-0.00486178
-0.00432652
-0.00408724
-0.0023755
-0.00245124
-0.00251872
-0.00259737
-0.00282687
-0.00303655
-0.00303352
-0.00306182
-0.00342607
-0.00392174
-0.00407826
-0.00382985
-0.00358918
-0.00377846
-0.00439364
-0.00503614
-0.00528668
-0.00505638
-0.00459583
-0.00427848
-0.00243773
-0.00251119
-0.00259241
-0.00266632
-0.00286309
-0.00309313
-0.00315364
-0.00316748
-0.00342807
-0.00387671
-0.00413076
-0.00401514
-0.00378888
-0.00384283
-0.00428781
-0.00487413
-0.0052274
-0.00516923
-0.0048285
-0.00450186
-0.00250094
-0.00257069
-0.00266242
-0.00273969
-0.00290775
-0.00313956
-0.00325381
-0.00328057
-0.00346297
-0.00384216
-0.00414454
-0.0041486
-0.0039786
-0.00395377
-0.00424789
-0.00473735
-0.00512878
-0.00520895
-0.00500293
-0.00472115
-0.00256462
-0.00263011
-0.00272859
-0.00281418
-0.00296075
-0.00318171
-0.00333475
-0.00338991
-0.00352283
-0.00382855
-0.00413777
-0.00423431
-0.00414031
-0.00408704
-0.00426529
-0.00464503
-0.00502244
-0.0051945
-0.00511467
-0.00490969
-0.00262811
-0.00268955
-0.00279134
-0.00288708
-0.00302006
-0.00322407
-0.00340014
-0.00348811
-0.00359748
-0.0038385
-0.00412721
-0.00428382
-0.00426603
-0.00422131
-0.004323
-0.0046016
-0.00493285
-0.00514972
-0.00517158
-0.00505389
-0.00269071
-0.00274881
-0.00285125
-0.00295652
-0.00308286
-0.00326914
-0.00345485
-0.00357212
-0.00367711
-0.00386908
-0.00412385
-0.00431014
-0.00435675
-0.00434162
-0.00440256
-0.00460036
-0.00487291
-0.00509748
-0.00518768
-0.00515072
-0.00275173
-0.00280736
-0.0029087
-0.00302151
-0.00314634
-0.00331735
-0.00350318
-0.00364242
-0.00375402
-0.00391404
-0.00413252
-0.00432554
-0.00441915
-0.00444073
-0.00448828
-0.0046294
-0.00484491
-0.00505396
-0.00518075
-0.00520675
-0.00281044
-0.00286446
-0.00296381
-0.0030817
-0.00320807
-0.00336765
-0.00354819
-0.00370137
-0.00382371
-0.00396629
-0.00415336
-0.00433897
-0.00446129
-0.00451762
-0.00456905
-0.0046759
-0.00484421
-0.00502723
-0.00516666
-0.00523456
-0.00286614
-0.00291923
-0.00301639
-0.00313706
-0.00326619
-0.00341823
-0.0035914
-0.00375154
-0.00388445
-0.00401976
-0.00418345
-0.00435539
-0.00449117
-0.00457494
-0.00463873
-0.00472894
-0.00486298
-0.00501858
-0.00515568
-0.0052467
-0.00291806
-0.0029707
-0.00306587
-0.00318756
-0.00331944
-0.00346716
-0.00363303
-0.00379504
-0.00393615
-0.00407017
-0.00421861
-0.00437627
-0.00451515
-0.00461712
-0.00469523
-0.00478062
-0.00489282
-0.00502493
-0.00515241
-0.00525286
-0.00296538
-0.00301786
-0.00311146
-0.00323303
-0.00336703
-0.00351266
-0.00367249
-0.00383331
-0.00397959
-0.00411506
-0.00425472
-0.00440055
-0.00453698
-0.00464896
-0.00473926
-0.00482623
-0.00492644
-0.0050411
-0.00515715
-0.00525871
-0.00300718
-0.00305967
-0.00315216
-0.00327307
-0.00340839
-0.00355322
-0.00370862
-0.00386694
-0.00401577
-0.00415334
-0.00428857
-0.00442592
-0.00455806
-0.00467438
-0.00477317
-0.00486394
-0.00495864
-0.00506164
-0.00516746
-0.00526618
-0.00304236
-0.00309505
-0.00318688
-0.00330704
-0.003443
-0.00358766
-0.00374008
-0.00389567
-0.0040452
-0.00418452
-0.00431787
-0.0044498
-0.00457792
-0.00469557
-0.00479961
-0.00489409
-0.00498672
-0.00508247
-0.00518026
-0.00527478
-0.00306966
-0.00312284
-0.00321452
-0.00333408
-0.00347034
-0.00361518
-0.00376585
-0.00391903
-0.00406812
-0.0042084
-0.00434112
-0.00446983
-0.00459476
-0.00471239
-0.00481971
-0.00491763
-0.00501035
-0.00510189
-0.00519342
-0.00528311
-0.0030872
-0.00314175
-0.00323415
-0.0033538
-0.00349047
-0.00363593
-0.00378615
-0.00393804
-0.00408645
-0.004227
-0.00435952
-0.00448654
-0.00460916
-0.00472571
-0.0048341
-0.00493446
-0.00502928
-0.00512126
-0.00521137
-0.00529867
0.00974366
0.00424266
-0.00365771
-0.00938992
-0.0110777
-0.0104651
-0.00957191
-0.00907139
-0.00892118
-0.00893371
-0.00897818
-0.00900362
-0.0090032
-0.00898416
-0.00895824
-0.00893645
-0.00892465
-0.00892544
-0.00894069
-0.00896974
-0.00900883
-0.00905433
-0.00910448
-0.00915826
-0.00921544
-0.00927727
-0.00934456
-0.00941511
-0.00948485
-0.00955196
-0.00961891
-0.0096893
-0.00976323
-0.00983682
-0.00990615
-0.00997143
-0.0100357
-0.0100998
-0.0101606
-0.010215
-0.0102635
-0.0103086
-0.0103515
-0.0103906
-0.0104251
-0.0104565
-0.0104865
-0.0105147
-0.0105405
-0.0105641
-0.0105868
-0.0106091
-0.0106312
-0.0106534
-0.0106759
-0.0106989
-0.010722
-0.0107456
-0.0107701
-0.010796
-0.0108233
-0.0108514
-0.0108801
-0.0109096
-0.0109406
-0.0109731
-0.0110067
-0.0110411
-0.0110764
-0.0111131
-0.011151
-0.0111901
-0.0112301
-0.0112711
-0.0113133
-0.0113565
-0.0114008
-0.011446
-0.0114922
-0.0115393
-0.0115874
-0.0116365
-0.0116864
-0.0117371
-0.0117887
-0.0118412
-0.0118945
-0.0119487
-0.0120036
-0.0120594
-0.0121159
-0.0121732
-0.0122314
-0.0122902
-0.0123499
-0.0124103
-0.0124714
-0.0125334
-0.012596
-0.0126595
-0.0127236
-0.0127885
-0.0128541
-0.0129204
-0.0129874
-0.0130552
-0.0131236
-0.0131927
-0.0132626
-0.0133331
-0.0134043
-0.0134762
-0.0135488
-0.0136221
-0.0136961
-0.0137708
-0.0138462
-0.0139223
-0.0139991
-0.0140765
-0.0141548
-0.0142337
-0.0143134
-0.0143938
-0.0144749
-0.0145568
-0.0146394
-0.0147228
-0.0148069
-0.0148919
-0.0149775
-0.015064
-0.0151512
-0.0152392
-0.0153281
-0.0154177
-0.0155081
-0.0155994
-0.0156915
-0.0157844
-0.0158782
-0.0159728
-0.0160683
-0.0161646
-0.0162618
-0.0163599
-0.0164589
-0.0165588
-0.0166595
-0.0167612
-0.0168638
-0.0169674
-0.0170718
-0.0171773
-0.0172836
-0.017391
-0.0174992
-0.0176086
-0.0177187
-0.0178303
-0.0179422
-0.0180559
-0.0181697
-0.0182857
-0.0184013
-0.0185196
-0.0186373
-0.0187576
-0.0188776
-0.0189998
-0.0191226
-0.0192461
-0.0193722
-0.0194969
-0.0196261
-0.0197525
-0.0198842
-0.0200135
-0.0201463
-0.0202797
-0.0204129
-0.0205504
-0.0206851
-0.0208247
-0.0209635
-0.0211029
-0.0212468
-0.0213871
-0.0215326
-0.0216784
-0.0218211
-0.0219734
-0.0221159
-0.022266
-0.0224179
-0.0225566
-0.0227137
-0.0228574
-0.0229807
-0.0231257
0.00902628
0.00406998
-0.00357828
-0.00925513
-0.0109978
-0.0104273
-0.00954807
-0.00905432
-0.00890863
-0.008924
-0.00897026
-0.00899695
-0.00899748
-0.00897917
-0.0089538
-0.00893246
-0.00892102
-0.00892211
-0.00893761
-0.0089669
-0.0090062
-0.00905189
-0.00910222
-0.00915616
-0.00921348
-0.00927544
-0.00934285
-0.00941353
-0.00948338
-0.0095506
-0.00961765
-0.00968812
-0.00976214
-0.00983582
-0.00990524
-0.00997058
-0.0100349
-0.010099
-0.01016
-0.0102145
-0.0102629
-0.0103082
-0.0103511
-0.0103902
-0.0104247
-0.0104562
-0.0104862
-0.0105144
-0.0105402
-0.0105639
-0.0105866
-0.010609
-0.0106311
-0.0106533
-0.0106758
-0.0106988
-0.0107219
-0.0107455
-0.0107701
-0.010796
-0.0108232
-0.0108514
-0.0108801
-0.0109096
-0.0109406
-0.0109731
-0.0110067
-0.011041
-0.0110764
-0.0111131
-0.011151
-0.0111901
-0.0112301
-0.0112711
-0.0113133
-0.0113565
-0.0114008
-0.011446
-0.0114922
-0.0115393
-0.0115874
-0.0116365
-0.0116864
-0.0117371
-0.0117887
-0.0118412
-0.0118945
-0.0119487
-0.0120036
-0.0120594
-0.0121159
-0.0121732
-0.0122314
-0.0122902
-0.0123499
-0.0124103
-0.0124715
-0.0125334
-0.012596
-0.0126595
-0.0127236
-0.0127885
-0.0128541
-0.0129204
-0.0129874
-0.0130552
-0.0131236
-0.0131927
-0.0132626
-0.0133331
-0.0134043
-0.0134762
-0.0135488
-0.0136221
-0.0136961
-0.0137708
-0.0138462
-0.0139223
-0.0139991
-0.0140765
-0.0141548
-0.0142337
-0.0143134
-0.0143938
-0.0144749
-0.0145568
-0.0146394
-0.0147228
-0.0148069
-0.0148919
-0.0149775
-0.015064
-0.0151512
-0.0152392
-0.0153281
-0.0154177
-0.0155081
-0.0155994
-0.0156915
-0.0157844
-0.0158782
-0.0159728
-0.0160683
-0.0161646
-0.0162618
-0.0163599
-0.0164589
-0.0165588
-0.0166595
-0.0167612
-0.0168638
-0.0169674
-0.0170718
-0.0171773
-0.0172836
-0.017391
-0.0174992
-0.0176086
-0.0177187
-0.0178303
-0.0179422
-0.0180559
-0.0181697
-0.0182857
-0.0184013
-0.0185196
-0.0186373
-0.0187576
-0.0188776
-0.0189998
-0.0191226
-0.0192461
-0.0193722
-0.0194969
-0.0196261
-0.0197525
-0.0198842
-0.0200135
-0.0201463
-0.0202797
-0.0204129
-0.0205504
-0.0206851
-0.0208247
-0.0209635
-0.0211029
-0.0212468
-0.0213871
-0.0215326
-0.0216784
-0.0218211
-0.0219734
-0.0221159
-0.022266
-0.0224179
-0.0225566
-0.0227137
-0.0228574
-0.0229807
-0.0231257
0.00827393
0.00389974
-0.00340429
-0.00900079
-0.0108532
-0.0103713
-0.00951914
-0.00903245
-0.0088913
-0.00891036
-0.00895933
-0.008988
-0.00899005
-0.00897295
-0.00894851
-0.00892788
-0.00891698
-0.00891848
-0.00893433
-0.00896389
-0.00900342
-0.00904931
-0.00909983
-0.00915395
-0.00921143
-0.00927352
-0.00934106
-0.00941185
-0.00948183
-0.00954916
-0.00961631
-0.00968687
-0.00976099
-0.00983476
-0.00990426
-0.00996967
-0.0100341
-0.0100983
-0.0101593
-0.0102138
-0.0102623
-0.0103076
-0.0103506
-0.0103897
-0.0104243
-0.0104558
-0.0104859
-0.0105142
-0.01054
-0.0105637
-0.0105864
-0.0106088
-0.0106309
-0.0106531
-0.0106757
-0.0106986
-0.0107218
-0.0107454
-0.01077
-0.0107959
-0.0108232
-0.0108513
-0.01088
-0.0109096
-0.0109405
-0.010973
-0.0110066
-0.011041
-0.0110764
-0.011113
-0.011151
-0.0111901
-0.0112301
-0.0112711
-0.0113133
-0.0113565
-0.0114008
-0.011446
-0.0114922
-0.0115393
-0.0115874
-0.0116365
-0.0116864
-0.0117371
-0.0117887
-0.0118412
-0.0118945
-0.0119487
-0.0120036
-0.0120594
-0.0121159
-0.0121732
-0.0122314
-0.0122902
-0.0123499
-0.0124103
-0.0124715
-0.0125334
-0.012596
-0.0126595
-0.0127236
-0.0127885
-0.0128541
-0.0129204
-0.0129874
-0.0130552
-0.0131236
-0.0131927
-0.0132626
-0.0133331
-0.0134043
-0.0134762
-0.0135488
-0.0136221
-0.0136961
-0.0137708
-0.0138462
-0.0139223
-0.0139991
-0.0140765
-0.0141548
-0.0142337
-0.0143134
-0.0143938
-0.0144749
-0.0145568
-0.0146394
-0.0147228
-0.0148069
-0.0148919
-0.0149775
-0.015064
-0.0151512
-0.0152392
-0.0153281
-0.0154177
-0.0155081
-0.0155994
-0.0156915
-0.0157844
-0.0158782
-0.0159728
-0.0160683
-0.0161646
-0.0162618
-0.0163599
-0.0164589
-0.0165588
-0.0166595
-0.0167612
-0.0168638
-0.0169674
-0.0170718
-0.0171773
-0.0172836
-0.017391
-0.0174992
-0.0176086
-0.0177187
-0.0178303
-0.0179422
-0.0180559
-0.0181697
-0.0182857
-0.0184013
-0.0185196
-0.0186373
-0.0187576
-0.0188776
-0.0189998
-0.0191226
-0.0192461
-0.0193722
-0.0194969
-0.0196261
-0.0197525
-0.0198842
-0.0200135
-0.0201463
-0.0202797
-0.0204129
-0.0205504
-0.0206851
-0.0208247
-0.0209635
-0.0211029
-0.0212468
-0.0213871
-0.0215326
-0.0216784
-0.0218211
-0.0219734
-0.0221159
-0.022266
-0.0224179
-0.0225566
-0.0227137
-0.0228574
-0.0229807
-0.0231257
0.00756132
0.00375173
-0.00316238
-0.00866506
-0.0106526
-0.0102927
-0.00947946
-0.00900116
-0.00886562
-0.00889019
-0.0089434
-0.00897507
-0.0089794
-0.00896413
-0.0089412
-0.00892175
-0.00891176
-0.00891396
-0.00893035
-0.00896032
-0.00900015
-0.00904628
-0.00909701
-0.00915135
-0.00920903
-0.00927129
-0.00933895
-0.00940985
-0.00947993
-0.00954739
-0.00961467
-0.00968535
-0.00975956
-0.00983343
-0.00990302
-0.00996853
-0.010033
-0.0100973
-0.0101584
-0.010213
-0.0102616
-0.0103069
-0.0103499
-0.0103891
-0.0104238
-0.0104553
-0.0104854
-0.0105138
-0.0105396
-0.0105634
-0.0105861
-0.0106085
-0.0106307
-0.0106529
-0.0106755
-0.0106985
-0.0107217
-0.0107453
-0.0107699
-0.0107958
-0.0108231
-0.0108512
-0.0108799
-0.0109095
-0.0109405
-0.010973
-0.0110066
-0.011041
-0.0110763
-0.011113
-0.011151
-0.01119
-0.01123
-0.0112711
-0.0113133
-0.0113565
-0.0114008
-0.011446
-0.0114922
-0.0115393
-0.0115874
-0.0116365
-0.0116864
-0.0117371
-0.0117887
-0.0118412
-0.0118945
-0.0119487
-0.0120036
-0.0120594
-0.0121159
-0.0121732
-0.0122314
-0.0122902
-0.0123499
-0.0124103
-0.0124715
-0.0125334
-0.012596
-0.0126595
-0.0127236
-0.0127885
-0.0128541
-0.0129204
-0.0129874
-0.0130552
-0.0131236
-0.0131927
-0.0132626
-0.0133331
-0.0134043
-0.0134762
-0.0135488
-0.0136221
-0.0136961
-0.0137708
-0.0138462
-0.0139223
-0.0139991
-0.0140765
-0.0141548
-0.0142337
-0.0143134
-0.0143938
-0.0144749
-0.0145568
-0.0146394
-0.0147228
-0.0148069
-0.0148919
-0.0149775
-0.015064
-0.0151512
-0.0152392
-0.0153281
-0.0154177
-0.0155081
-0.0155994
-0.0156915
-0.0157844
-0.0158782
-0.0159728
-0.0160683
-0.0161646
-0.0162618
-0.0163599
-0.0164589
-0.0165588
-0.0166595
-0.0167612
-0.0168638
-0.0169674
-0.0170718
-0.0171773
-0.0172836
-0.017391
-0.0174992
-0.0176086
-0.0177187
-0.0178303
-0.0179422
-0.0180559
-0.0181697
-0.0182857
-0.0184013
-0.0185196
-0.0186373
-0.0187576
-0.0188776
-0.0189998
-0.0191226
-0.0192461
-0.0193722
-0.0194969
-0.0196262
-0.0197525
-0.0198842
-0.0200135
-0.0201463
-0.0202797
-0.0204128
-0.0205504
-0.0206851
-0.0208247
-0.0209635
-0.0211029
-0.0212468
-0.0213871
-0.0215326
-0.0216784
-0.0218211
-0.0219734
-0.0221159
-0.022266
-0.0224179
-0.0225566
-0.0227137
-0.0228574
-0.0229808
-0.0231257
0.00687843
0.00359443
-0.00290202
-0.00830008
-0.0104276
-0.0102041
-0.00943506
-0.00896326
-0.00883219
-0.00886294
-0.00892143
-0.00895692
-0.00896417
-0.00895141
-0.00893067
-0.00891302
-0.00890446
-0.00890777
-0.00892501
-0.00895562
-0.00899588
-0.00904232
-0.00909332
-0.00914794
-0.00920591
-0.0092684
-0.00933618
-0.00940714
-0.00947731
-0.00954493
-0.00961239
-0.00968321
-0.00975752
-0.00983148
-0.0099012
-0.00996685
-0.0100314
-0.0100958
-0.010157
-0.0102116
-0.0102603
-0.0103058
-0.0103489
-0.0103882
-0.0104229
-0.0104546
-0.0104847
-0.0105131
-0.010539
-0.0105628
-0.0105856
-0.0106081
-0.0106303
-0.0106526
-0.0106752
-0.0106982
-0.0107214
-0.0107451
-0.0107697
-0.0107956
-0.0108229
-0.0108511
-0.0108798
-0.0109094
-0.0109404
-0.0109729
-0.0110065
-0.0110409
-0.0110763
-0.011113
-0.011151
-0.01119
-0.01123
-0.0112711
-0.0113133
-0.0113565
-0.0114007
-0.0114459
-0.0114921
-0.0115393
-0.0115874
-0.0116365
-0.0116864
-0.0117371
-0.0117887
-0.0118412
-0.0118945
-0.0119487
-0.0120036
-0.0120594
-0.0121159
-0.0121732
-0.0122314
-0.0122902
-0.0123499
-0.0124103
-0.0124715
-0.0125334
-0.012596
-0.0126595
-0.0127236
-0.0127885