/*--------------------------------*- C++ -*----------------------------------*\
| =========                 |                                                 |
| \\      /  F ield         | OpenFOAM: The Open Source CFD Toolbox           |
|  \\    /   O peration     | Version:  v2012                                 |
|   \\  /    A nd           | Website:  www.openfoam.com                      |
|    \\/     M anipulation  |                                                 |
\*---------------------------------------------------------------------------*/
FoamFile
{
    version     2.0;
    format      ascii;
    class       volVectorField;
    location    "0.3";
    object      U;
}
// * * * * * * * * * * * * * * * * * * * * * * * * * * * * * * * * * * * * * //

dimensions      [0 1 -1 0 0 0 0];


internalField   nonuniform List<vector> 
17600
(
(0.846983 0.00239441 0)
(1.14017 -0.00520757 0)
(0.862797 0.00712742 0)
(1.12939 -0.00879864 0)
(0.844998 0.00909993 0)
(1.14022 -0.00578824 0)
(0.815463 0.00312665 0)
(1.14123 -5.2056e-05 0)
(0.82135 0.000639654 0)
(1.12162 0.000141384 0)
(0.83624 0.00186281 0)
(1.10629 0.000799437 0)
(0.845466 0.00185072 0)
(1.09681 0.000834486 0)
(0.848047 0.00217182 0)
(1.09193 0.000667513 0)
(0.843914 0.00244167 0)
(1.08998 0.000502866 0)
(0.833507 0.00335097 0)
(1.08872 0.000695272 0)
(0.856512 0.00239689 0)
(1.1277 -0.0051294 0)
(0.870716 0.00701426 0)
(1.11432 -0.00842489 0)
(0.852736 0.00880847 0)
(1.12123 -0.00524042 0)
(0.827873 0.00291588 0)
(1.11882 0.000158259 0)
(0.841206 0.000629412 0)
(1.09678 0.000214871 0)
(0.861657 0.00182738 0)
(1.07659 0.000923185 0)
(0.879383 0.0017704 0)
(1.05844 0.000995408 0)
(0.895304 0.00213152 0)
(1.03889 0.000826499 0)
(0.912084 0.00266519 0)
(1.01308 0.000406936 0)
(0.93368 0.00468496 0)
(0.974092 -0.00010703 0)
(0.875069 0.00242787 0)
(1.10629 -0.00505434 0)
(0.886931 0.00693279 0)
(1.09186 -0.00806967 0)
(0.869632 0.00850107 0)
(1.09343 -0.00476794 0)
(0.854684 0.00267943 0)
(1.08236 0.000222224 0)
(0.877547 0.000686467 0)
(1.05715 0.000134748 0)
(0.901605 0.00192841 0)
(1.03457 0.000816115 0)
(0.923404 0.00191554 0)
(1.01425 0.00083713 0)
(0.941714 0.00239992 0)
(0.995592 0.000581282 0)
(0.955986 0.00307706 0)
(0.97828 0.000134817 0)
(0.96509 0.00507649 0)
(0.963711 0.000747896 0)
(0.899864 0.0024917 0)
(1.08009 -0.00499228 0)
(0.909061 0.00689785 0)
(1.06701 -0.00777526 0)
(0.893625 0.00831896 0)
(1.06408 -0.00449015 0)
(0.890159 0.00263356 0)
(1.04477 7.77781e-05 0)
(0.917999 0.000860158 0)
(1.02077 -7.76297e-05 0)
(0.938078 0.00213278 0)
(1.00319 0.000568038 0)
(0.954826 0.00215299 0)
(0.989957 0.000588962 0)
(0.96573 0.0026667 0)
(0.981216 0.000360347 0)
(0.970867 0.00333687 0)
(0.975317 4.44926e-05 0)
(0.97112 0.00522356 0)
(0.970739 0.00169246 0)
(0.926732 0.00257755 0)
(1.05398 -0.00493857 0)
(0.933091 0.0068771 0)
(1.0441 -0.00752539 0)
(0.920269 0.00822637 0)
(1.03901 -0.00436821 0)
(0.925254 0.00275686 0)
(1.01668 -0.000162058 0)
(0.95102 0.00107329 0)
(0.99911 -0.000265542 0)
(0.96266 0.00230228 0)
(0.989804 0.000383515 0)
(0.971923 0.00230258 0)
(0.984107 0.000452312 0)
(0.976491 0.00278787 0)
(0.98151 0.000285333 0)
(0.977491 0.00343177 0)
(0.979267 0.000102382 0)
(0.976199 0.00531656 0)
(0.975833 0.00258253 0)
(0.951443 0.00266923 0)
(1.03221 -0.00488985 0)
(0.954993 0.00685371 0)
(1.02621 -0.00731794 0)
(0.944897 0.00817252 0)
(1.02136 -0.00434181 0)
(0.953484 0.00293621 0)
(1.00154 -0.000393085 0)
(0.972843 0.0012361 0)
(0.991528 -0.000361209 0)
(0.977149 0.00238577 0)
(0.988266 0.000291697 0)
(0.981472 0.00236118 0)
(0.986278 0.000396394 0)
(0.983253 0.00283033 0)
(0.985557 0.000264488 0)
(0.983147 0.00346898 0)
(0.983925 0.000215001 0)
(0.981693 0.00535729 0)
(0.98082 0.00338868 0)
(0.971029 0.0027491 0)
(1.01699 -0.00484121 0)
(0.972169 0.00682084 0)
(1.01436 -0.0071501 0)
(0.964481 0.00812796 0)
(1.01107 -0.00435584 0)
(0.972948 0.00309084 0)
(0.996295 -0.000559976 0)
(0.985547 0.0013255 0)
(0.991486 -0.000387892 0)
(0.985803 0.00240838 0)
(0.990951 0.000248229 0)
(0.98779 0.00237724 0)
(0.990079 0.000373818 0)
(0.988548 0.00284064 0)
(0.989696 0.000273236 0)
(0.987998 0.00346262 0)
(0.988174 0.000398099 0)
(0.986373 0.00532053 0)
(0.985425 0.00416179 0)
(0.984491 0.00280464 0)
(1.00807 -0.0047894 0)
(0.983966 0.00677626 0)
(1.00766 -0.00701343 0)
(0.978186 0.00807672 0)
(1.00607 -0.00437266 0)
(0.984908 0.00319377 0)
(0.995997 -0.000660287 0)
(0.992551 0.0013652 0)
(0.993591 -0.000381669 0)
(0.991214 0.00240429 0)
(0.993929 0.000228293 0)
(0.992148 0.00238016 0)
(0.993259 0.000371761 0)
(0.992435 0.00283335 0)
(0.992877 0.000318138 0)
(0.991568 0.00341297 0)
(0.991378 0.000652908 0)
(0.989822 0.00522229 0)
(0.988921 0.00489898 0)
(0.992564 0.00283254 0)
(1.00366 -0.00473458 0)
(0.99121 0.00672193 0)
(1.00435 -0.00689747 0)
(0.986796 0.00801253 0)
(1.00403 -0.00437365 0)
(0.991641 0.00324906 0)
(0.997151 -0.000710837 0)
(0.996341 0.0013828 0)
(0.995492 -0.000360183 0)
(0.994523 0.0023898 0)
(0.996077 0.000226581 0)
(0.994948 0.00237803 0)
(0.995404 0.000390426 0)
(0.994968 0.00280968 0)
(0.994969 0.000403519 0)
(0.99388 0.00332594 0)
(0.993468 0.000967733 0)
(0.992099 0.00509104 0)
(0.991262 0.00557475 0)
(0.996853 0.00283745 0)
(1.00174 -0.00467846 0)
(0.995312 0.0066612 0)
(1.00283 -0.00679236 0)
(0.991762 0.00793496 0)
(1.00331 -0.00435334 0)
(0.995174 0.00326984 0)
(0.998234 -0.000726636 0)
(0.99834 0.00139095 0)
(0.996711 -0.000327863 0)
(0.996411 0.00236707 0)
(0.997401 0.000241967 0)
(0.996611 0.00236672 0)
(0.996721 0.000432146 0)
(0.996487 0.00276376 0)
(0.996243 0.000527853 0)
(0.995265 0.00320908 0)
(0.994741 0.00132628 0)
(0.993522 0.0049549 0)
(0.99276 0.0061617 0)
(0.998951 0.00282725 0)
(1.00091 -0.00462219 0)
(0.997559 0.00659602 0)
(1.00207 -0.00669001 0)
(0.994487 0.00784468 0)
(1.00303 -0.00431199 0)
(0.996935 0.00326685 0)
(0.998897 -0.000717015 0)
(0.999345 0.00139025 0)
(0.997391 -0.000283648 0)
(0.997426 0.00233345 0)
(0.998175 0.000272629 0)
(0.997567 0.00234022 0)
(0.997524 0.000498601 0)
(0.997382 0.00268975 0)
(0.997024 0.000687298 0)
(0.996095 0.00306959 0)
(0.995529 0.00170548 0)
(0.994439 0.00484154 0)
(0.993757 0.00664 0)
(0.999966 0.00280871 0)
(1.00045 -0.00456574 0)
(0.998819 0.00652663 0)
(1.00159 -0.00658478 0)
(0.995994 0.00774142 0)
(1.00283 -0.00425055 0)
(0.997797 0.00324485 0)
(0.999221 -0.000686602 0)
(0.999823 0.0013776 0)
(0.997751 -0.000226419 0)
(0.997966 0.00228375 0)
(0.998631 0.00032008 0)
(0.998134 0.00229132 0)
(0.99804 0.000591929 0)
(0.99794 0.00258704 0)
(0.997533 0.000876592 0)
(0.996632 0.00292046 0)
(0.99606 0.00207782 0)
(0.995092 0.00477511 0)
(0.994487 0.0070067 0)
(1.00049 0.00278586 0)
(1.00013 -0.0045084 0)
(0.99957 0.00645249 0)
(1.00123 -0.00647338 0)
(0.996882 0.00762444 0)
(1.00265 -0.00416924 0)
(0.998239 0.00320457 0)
(0.999361 -0.000636966 0)
(1.00004 0.00134991 0)
(0.997945 -0.000154174 0)
(0.998265 0.00221413 0)
(0.998914 0.000387316 0)
(0.998491 0.00221568 0)
(0.998391 0.000711336 0)
(0.998312 0.00246077 0)
(0.997887 0.0010859 0)
(0.997011 0.00278268 0)
(0.996451 0.00241652 0)
(0.995605 0.00476586 0)
(0.995075 0.00727401 0)
(1.00079 0.00276046 0)
(0.999905 -0.00444925 0)
(1.00003 0.00637295 0)
(1.00095 -0.0063539 0)
(0.997445 0.00749298 0)
(1.00248 -0.00406789 0)
(0.998491 0.0031454 0)
(0.999421 -0.000567778 0)
(1.00015 0.00130435 0)
(0.998058 -6.5726e-05 0)
(0.998442 0.00212284 0)
(0.999095 0.000475027 0)
(0.998723 0.00211523 0)
(0.998631 0.000852119 0)
(0.998568 0.00232028 0)
(0.998135 0.00129935 0)
(0.997289 0.00267956 0)
(0.996754 0.0027046 0)
(0.996029 0.00480778 0)
(0.995574 0.0074601 0)
(1.00095 0.002733 0)
(0.999771 -0.00438738 0)
(1.00031 0.00628723 0)
(1.00077 -0.0062249 0)
(0.997809 0.00734637 0)
(1.00234 -0.0039466 0)
(0.998652 0.00306664 0)
(0.999451 -0.000477715 0)
(1.0002 0.00123831 0)
(0.998132 4.18289e-05 0)
(0.998552 0.00200779 0)
(0.99921 0.000583315 0)
(0.998874 0.00199368 0)
(0.998788 0.00100861 0)
(0.99874 0.00217655 0)
(0.998306 0.0014997 0)
(0.997494 0.00262614 0)
(0.996995 0.00294609 0)
(0.996392 0.00488834 0)
(0.99601 0.00758716 0)
(1.00102 0.00270348 0)
(0.999711 -0.00432187 0)
(1.00046 0.00619445 0)
(1.00067 -0.0060853 0)
(0.998037 0.00718424 0)
(1.00224 -0.00380531 0)
(0.998766 0.00296683 0)
(0.999464 -0.000364589 0)
(1.00024 0.00114958 0)
(0.998185 0.000172875 0)
(0.998621 0.00186841 0)
(0.999279 0.000710974 0)
(0.998969 0.00185572 0)
(0.998886 0.00117219 0)
(0.99885 0.00204538 0)
(0.99842 0.00166834 0)
(0.997646 0.00262438 0)
(0.997193 0.00315591 0)
(0.996711 0.00499097 0)
(0.996402 0.00767797 0)
(1.00105 0.00267172 0)
(0.999704 -0.00425172 0)
(1.00052 0.00609379 0)
(1.00063 -0.00593419 0)
(0.99817 0.00700577 0)
(1.00216 -0.00364266 0)
(0.998853 0.00284379 0)
(0.999461 -0.000226741 0)
(1.00026 0.00103681 0)
(0.998224 0.000327188 0)
(0.998666 0.0017084 0)
(0.999318 0.00085283 0)
(0.999029 0.00171088 0)
(0.998943 0.00132832 0)
(0.998919 0.00194706 0)
(0.998501 0.00179199 0)
(0.997765 0.00266314 0)
(0.997365 0.00334308 0)
(0.997002 0.00509291 0)
(0.996764 0.00774056 0)
(1.00104 0.00263748 0)
(0.999731 -0.00417608 0)
(1.00052 0.00598443 0)
(1.00062 -0.0057703 0)
(0.998247 0.00680977 0)
(1.00209 -0.00345804 0)
(0.99893 0.00269768 0)
(0.999443 -6.45312e-05 0)
(1.00028 0.000899492 0)
(0.998254 0.000502819 0)
(0.998697 0.00153375 0)
(0.999339 0.00100155 0)
(0.999068 0.00157296 0)
(0.99898 0.00146096 0)
(0.998962 0.00189532 0)
(0.998564 0.00187531 0)
(0.997868 0.00272743 0)
(0.997523 0.00351707 0)
(0.997278 0.00517844 0)
(0.997109 0.00776698 0)
(1.00101 0.00260057 0)
(0.999775 -0.00409422 0)
(1.0005 0.00586537 0)
(1.00064 -0.00559196 0)
(0.998295 0.00659486 0)
(1.00202 -0.00325091 0)
(0.999003 0.00252753 0)
(0.999413 0.000123213 0)
(1.0003 0.000738454 0)
(0.99828 0.000695543 0)
(0.99872 0.00135146 0)
(0.999352 0.00114699 0)
(0.999096 0.00145786 0)
(0.999008 0.0015558 0)
(0.998992 0.00189196 0)
(0.998622 0.00193501 0)
(0.997969 0.00280508 0)
(0.997676 0.00369293 0)
(0.997547 0.00525131 0)
(0.997448 0.00775219 0)
(1.00098 0.00256081 0)
(0.999827 -0.00400554 0)
(1.00047 0.00573571 0)
(1.00066 -0.00539831 0)
(0.998332 0.00636047 0)
(1.00194 -0.00302012 0)
(0.999078 0.00233106 0)
(0.999377 0.000336688 0)
(1.00033 0.000556398 0)
(0.998304 0.000900243 0)
(0.99874 0.00117183 0)
(0.999364 0.00127528 0)
(0.999118 0.00137912 0)
(0.999037 0.001604 0)
(0.999016 0.00192786 0)
(0.998679 0.00198662 0)
(0.998076 0.00287838 0)
(0.997829 0.0038753 0)
(0.99781 0.00532391 0)
(0.997786 0.00769937 0)
(1.00095 0.00251811 0)
(0.999882 -0.00390925 0)
(1.00043 0.00559429 0)
(1.00069 -0.00518799 0)
(0.998367 0.00610493 0)
(1.00187 -0.00276406 0)
(0.999155 0.00210858 0)
(0.999337 0.000572739 0)
(1.00035 0.000359703 0)
(0.998329 0.00110859 0)
(0.998757 0.00100866 0)
(0.999379 0.00137311 0)
(0.999136 0.00134787 0)
(0.99907 0.00160557 0)
(0.999041 0.00198796 0)
(0.998737 0.00204421 0)
(0.998193 0.0029303 0)
(0.997988 0.00405304 0)
(0.998067 0.00540626 0)
(0.998121 0.00761637 0)
(1.00091 0.00247197 0)
(0.999937 -0.00380364 0)
(1.00039 0.00543889 0)
(1.00071 -0.00495852 0)
(0.998404 0.00582605 0)
(1.00179 -0.00248383 0)
(0.999237 0.00186295 0)
(0.999295 0.000826364 0)
(1.00037 0.000158046 0)
(0.998355 0.00130701 0)
(0.998771 0.000874228 0)
(0.9994 0.00143008 0)
(0.99915 0.00136901 0)
(0.999108 0.00157348 0)
(0.99907 0.00205917 0)
(0.998795 0.00212302 0)
(0.998323 0.00296029 0)
(0.998156 0.00420839 0)
(0.998316 0.00550273 0)
(0.998453 0.00751393 0)
(1.00088 0.00242231 0)
(0.999993 -0.00368824 0)
(1.00036 0.00526871 0)
(1.00073 -0.0047097 0)
(0.998445 0.00552501 0)
(1.0017 -0.0021819 0)
(0.999324 0.00159641 0)
(0.999251 0.0010908 0)
(1.00039 -3.22882e-05 0)
(0.998385 0.00148495 0)
(0.99878 0.000779329 0)
(0.999428 0.00143478 0)
(0.999161 0.00143538 0)
(0.999149 0.00152558 0)
(0.999107 0.00213136 0)
(0.998853 0.00223462 0)
(0.998461 0.00298575 0)
(0.998336 0.0043263 0)
(0.998558 0.00561084 0)
(0.998777 0.00740602 0)
(1.00084 0.00236914 0)
(1.00005 -0.00356224 0)
(1.00032 0.00508246 0)
(1.00075 -0.00444131 0)
(0.998489 0.00520224 0)
(1.00161 -0.00185752 0)
(0.999414 0.00131152 0)
(0.999207 0.00136026 0)
(1.00042 -0.000213673 0)
(0.998418 0.0016267 0)
(0.998783 0.000738172 0)
(0.999463 0.00138188 0)
(0.999171 0.00153316 0)
(0.999191 0.00147603 0)
(0.999155 0.00218506 0)
(0.99891 0.00238175 0)
(0.998603 0.00302678 0)
(0.99853 0.00440063 0)
(0.998794 0.00572038 0)
(0.999086 0.00730963 0)
(1.0008 0.0023118 0)
(1.0001 -0.00342342 0)
(1.00029 0.00487809 0)
(1.00077 -0.00415316 0)
(0.998538 0.00485909 0)
(1.00152 -0.00151616 0)
(0.999508 0.00101983 0)
(0.999164 0.00162322 0)
(1.00043 -0.000381254 0)
(0.998459 0.00171701 0)
(0.998777 0.000754788 0)
(0.999506 0.00127989 0)
(0.999181 0.00165102 0)
(0.999231 0.00145 0)
(0.999218 0.0022026 0)
(0.998969 0.00255734 0)
(0.998745 0.00309963 0)
(0.998737 0.00443617 0)
(0.999028 0.00581323 0)
(0.999377 0.0072352 0)
(1.00077 0.0022504 0)
(1.00016 -0.00327211 0)
(1.00025 0.0046559 0)
(1.00078 -0.00384642 0)
(0.998592 0.00449849 0)
(1.00143 -0.00116488 0)
(0.999605 0.000730176 0)
(0.999121 0.00186744 0)
(1.00045 -0.000503372 0)
(0.998508 0.00175448 0)
(0.998762 0.000825991 0)
(0.999556 0.00115105 0)
(0.999196 0.00177582 0)
(0.999265 0.00147381 0)
(0.999294 0.0021822 0)
(0.999036 0.00273634 0)
(0.99888 0.00321001 0)
(0.998953 0.00444686 0)
(0.999266 0.00587162 0)
(0.999647 0.00718565 0)
(1.00073 0.00218531 0)
(1.00021 -0.00310803 0)
(1.00022 0.00441609 0)
(1.00078 -0.00352342 0)
(0.99865 0.00412448 0)
(1.00133 -0.000810356 0)
(0.999704 0.00045221 0)
(0.999082 0.00208203 0)
(1.00045 -0.000571735 0)
(0.998567 0.00174016 0)
(0.998738 0.00094604 0)
(0.999608 0.0010152 0)
(0.99922 0.00188299 0)
(0.99929 0.00155076 0)
(0.999382 0.00213949 0)
(0.999115 0.00288984 0)
(0.999007 0.0033504 0)
(0.99917 0.00445138 0)
(0.999509 0.00588569 0)
(0.999899 0.00715436 0)
(1.00069 0.00211564 0)
(1.00026 -0.00292918 0)
(1.0002 0.00415951 0)
(1.00079 -0.00318761 0)
(0.998713 0.00374342 0)
(1.00122 -0.000462397 0)
(0.999804 0.000201527 0)
(0.999046 0.00225215 0)
(1.00044 -0.000586744 0)
(0.998635 0.0016746 0)
(0.998707 0.00110041 0)
(0.999661 0.000884971 0)
(0.999257 0.00195781 0)
(0.999306 0.00167463 0)
(0.999475 0.00210214 0)
(0.99921 0.00300695 0)
(0.999127 0.00350817 0)
(0.999382 0.00446567 0)
(0.999759 0.00585647 0)
(1.00014 0.00712014 0)
(1.00065 0.00204149 0)
(1.0003 -0.00273629 0)
(1.00017 0.0038876 0)
(1.00079 -0.00284286 0)
(0.998781 0.00336494 0)
(1.00112 -0.000131861 0)
(0.999901 -1.5349e-05 0)
(0.999017 0.00237644 0)
(1.00043 -0.000547363 0)
(0.998713 0.00156623 0)
(0.99867 0.00127782 0)
(0.99971 0.000775247 0)
(0.99931 0.00199755 0)
(0.999315 0.00184158 0)
(0.999568 0.00208789 0)
(0.999322 0.00308567 0)
(0.999245 0.00366874 0)
(0.999583 0.00449251 0)
(1.00001 0.00579063 0)
(1.00037 0.00705513 0)
(1.00061 0.0019645 0)
(1.00034 -0.00253312 0)
(1.00015 0.00360625 0)
(1.00078 -0.00249713 0)
(0.998852 0.00299887 0)
(1.00101 0.000170746 0)
(0.999996 -0.000193103 0)
(0.998994 0.00245552 0)
(1.0004 -0.000459649 0)
(0.9988 0.00143075 0)
(0.99863 0.00146724 0)
(0.999751 0.000699492 0)
(0.99938 0.00199313 0)
(0.99932 0.00204378 0)
(0.999655 0.00210913 0)
(0.999451 0.00312981 0)
(0.999363 0.00382506 0)
(0.99977 0.0045298 0)
(1.00027 0.005698 0)
(1.0006 0.00694296 0)
(1.00057 0.0018836 0)
(1.00038 -0.00232057 0)
(1.00013 0.00332229 0)
(1.00077 -0.00216008 0)
(0.998925 0.00265366 0)
(1.0009 0.000442706 0)
(1.00009 -0.000332267 0)
(0.998979 0.00248715 0)
(1.00036 -0.00033281 0)
(0.998895 0.00127501 0)
(0.998589 0.00165025 0)
(0.99978 0.000672036 0)
(0.99947 0.00193983 0)
(0.999327 0.00226203 0)
(0.99973 0.00217963 0)
(0.999592 0.00314527 0)
(0.999484 0.00396654 0)
(0.999937 0.00457374 0)
(1.00051 0.005583 0)
(1.00084 0.00677883 0)
(1.00054 0.00179989 0)
(1.00041 -0.00210114 0)
(1.00012 0.00303806 0)
(1.00075 -0.00183829 0)
(0.998999 0.00233815 0)
(1.00079 0.000682388 0)
(1.00017 -0.000439017 0)
(0.998973 0.00247665 0)
(1.0003 -0.000174792 0)
(0.998996 0.00110681 0)
(0.998553 0.00181102 0)
(0.999792 0.00070251 0)
(0.999578 0.00184636 0)
(0.999344 0.00246654 0)
(0.999789 0.00230799 0)
(0.999742 0.00314552 0)
(0.999612 0.00407771 0)
(1.00008 0.00462415 0)
(1.00073 0.00545022 0)
(1.00108 0.00656337 0)
(1.0005 0.00171468 0)
(1.00043 -0.00188069 0)
(1.0001 0.00276285 0)
(1.00073 -0.00154212 0)
(0.999075 0.00205667 0)
(1.00068 0.000887617 0)
(1.00024 -0.000501114 0)
(0.998977 0.00243944 0)
(1.00023 1.21979e-05 0)
(0.999099 0.000938091 0)
(0.998526 0.00194674 0)
(0.999785 0.000790744 0)
(0.999699 0.00173665 0)
(0.999378 0.00262885 0)
(0.999831 0.00248733 0)
(0.999891 0.00315347 0)
(0.999748 0.00415379 0)
(1.00021 0.00468819 0)
(1.00093 0.00532042 0)
(1.00132 0.00630587 0)
(1.00046 0.00162876 0)
(1.00045 -0.00166329 0)
(1.00009 0.002505 0)
(1.00071 -0.00127781 0)
(0.999151 0.00180933 0)
(1.00058 0.00105425 0)
(1.00031 -0.000527045 0)
(0.998991 0.00237657 0)
(1.00015 0.000221423 0)
(0.999202 0.000772298 0)
(0.998511 0.00205249 0)
(0.999759 0.000936056 0)
(0.999826 0.00164003 0)
(0.999436 0.00273512 0)
(0.999861 0.00268883 0)
(1.00003 0.00318333 0)
(0.999894 0.00419861 0)
(1.00031 0.0047659 0)
(1.00109 0.00522477 0)
(1.00155 0.00603209 0)
(1.00043 0.00154288 0)
(1.00046 -0.00145349 0)
(1.00008 0.00227082 0)
(1.00068 -0.00104545 0)
(0.999227 0.00159137 0)
(1.00047 0.00119219 0)
(1.00037 -0.00053852 0)
(0.999016 0.00228444 0)
(1.00005 0.000442793 0)
(0.999302 0.000618802 0)
(0.998516 0.00210986 0)
(0.999716 0.00113179 0)
(0.99995 0.0015784 0)
(0.999518 0.00279102 0)
(0.999885 0.00288201 0)
(1.00016 0.00323064 0)
(1.00005 0.00421165 0)
(1.00041 0.00483637 0)
(1.00122 0.0051732 0)
(1.00175 0.00577361 0)
(1.00039 0.00145832 0)
(1.00046 -0.00125454 0)
(1.00007 0.00206556 0)
(1.00065 -0.000844167 0)
(0.999303 0.00139309 0)
(1.00037 0.00131615 0)
(1.00041 -0.000525845 0)
(0.999054 0.00216654 0)
(0.99995 0.000677527 0)
(0.999393 0.000501682 0)
(0.998543 0.00211189 0)
(0.999662 0.00135702 0)
(1.00006 0.00155855 0)
(0.999621 0.00281195 0)
(0.999908 0.00305103 0)
(1.00027 0.00328099 0)
(1.00021 0.00418758 0)
(1.0005 0.00487532 0)
(1.0013 0.00515049 0)
(1.00191 0.00555547 0)
(1.00036 0.0013747 0)
(1.00046 -0.00106973 0)
(1.00006 0.00188975 0)
(1.00062 -0.000666923 0)
(0.999379 0.0012126 0)
(1.00027 0.0014227 0)
(1.00045 -0.000486634 0)
(0.999105 0.00201993 0)
(0.99984 0.000924958 0)
(0.999471 0.000437904 0)
(0.998593 0.0020644 0)
(0.999604 0.00159098 0)
(1.00016 0.00158494 0)
(0.999741 0.00281719 0)
(0.999934 0.00319713 0)
(1.00036 0.00332746 0)
(1.00037 0.00412538 0)
(1.0006 0.00487112 0)
(1.00135 0.00513787 0)
(1.00201 0.00538865 0)
(1.00032 0.00129549 0)
(1.00046 -0.000906702 0)
(1.00004 0.00174647 0)
(1.00058 -0.000512155 0)
(0.999457 0.00104521 0)
(1.00017 0.00151621 0)
(1.00047 -0.000424349 0)
(0.999172 0.00184499 0)
(0.99973 0.00116848 0)
(0.999529 0.000429235 0)
(0.998666 0.00197151 0)
(0.99955 0.00180848 0)
(1.00024 0.00166411 0)
(0.999875 0.00281372 0)
(0.999961 0.00332963 0)
(1.00043 0.00337479 0)
(1.00053 0.00402735 0)
(1.0007 0.00481253 0)
(1.00138 0.00511518 0)
(1.00207 0.00526279 0)
(1.00029 0.00121907 0)
(1.00045 -0.000763295 0)
(1.00003 0.00162719 0)
(1.00054 -0.000359784 0)
(0.999537 0.000866615 0)
(1.00009 0.00159626 0)
(1.00048 -0.000325779 0)
(0.999253 0.00164462 0)
(0.999626 0.00138793 0)
(0.999564 0.000489474 0)
(0.998758 0.00185273 0)
(0.99951 0.00198323 0)
(1.00031 0.00178579 0)
(1.00002 0.00280437 0)
(0.999994 0.00344674 0)
(1.00047 0.00344044 0)
(1.00068 0.0039062 0)
(1.00083 0.00469079 0)
(1.00141 0.00506249 0)
(1.00208 0.00516033 0)
(1.00026 0.00114467 0)
(1.00045 -0.000638863 0)
(1.00002 0.00152192 0)
(1.00049 -0.000195974 0)
(0.999619 0.000676843 0)
(1.00001 0.00165333 0)
(1.00047 -0.00018951 0)
(0.999345 0.00143226 0)
(0.999538 0.0015608 0)
(0.999576 0.000622586 0)
(0.998859 0.00174485 0)
(0.999491 0.00210181 0)
(1.00036 0.00191819 0)
(1.00016 0.00280112 0)
(1.00004 0.00353593 0)
(1.00048 0.0035344 0)
(1.0008 0.0037891 0)
(1.00096 0.00450306 0)
(1.00145 0.00495876 0)
(1.00207 0.00506064 0)
(1.00023 0.0010762 0)
(1.00044 -0.000530154 0)
(1.00001 0.00142099 0)
(1.00044 -2.16127e-05 0)
(0.9997 0.000501055 0)
(0.999953 0.00167633 0)
(1.00044 -1.4196e-05 0)
(0.999446 0.00123203 0)
(0.999473 0.00167477 0)
(0.99957 0.000801019 0)
(0.998962 0.00167175 0)
(0.999491 0.00217089 0)
(1.0004 0.00203665 0)
(1.00031 0.00280087 0)
(1.0001 0.00360091 0)
(1.00046 0.00364901 0)
(1.00088 0.00371689 0)
(1.0011 0.00427449 0)
(1.00151 0.00479014 0)
(1.00206 0.0049453 0)
(1.00021 0.00100447 0)
(1.00043 -0.000428086 0)
(1.00001 0.00132237 0)
(1.00038 0.00016355 0)
(0.999778 0.000349723 0)
(0.999915 0.0016504 0)
(1.00041 0.00020298 0)
(0.999547 0.00107364 0)
(0.999436 0.00172105 0)
(0.999553 0.000996042 0)
(0.999059 0.00164277 0)
(0.999509 0.00221186 0)
(1.00044 0.00213402 0)
(1.00046 0.00278059 0)
(1.00017 0.00363426 0)
(1.00043 0.00376207 0)
(1.0009 0.00370066 0)
(1.00122 0.004048 0)
(1.00159 0.00454921 0)
(1.00205 0.00478584 0)
(1.00019 0.00093798 0)
(1.00042 -0.00033742 0)
(1.00002 0.00122086 0)
(1.00032 0.000359767 0)
(0.999849 0.000230136 0)
(0.999901 0.00156012 0)
(1.00036 0.00043906 0)
(0.999641 0.000976247 0)
(0.999427 0.00170115 0)
(0.999535 0.00118449 0)
(0.999149 0.00167237 0)
(0.999539 0.0022497 0)
(1.00048 0.0022156 0)
(1.00061 0.00274423 0)
(1.00027 0.0036186 0)
(1.0004 0.00386122 0)
(1.00088 0.00373056 0)
(1.0013 0.00387059 0)
(1.00168 0.00426869 0)
(1.00207 0.00456256 0)
(1.00017 0.000870673 0)
(1.00041 -0.000246041 0)
(1.00004 0.00110469 0)
(1.00025 0.000561295 0)
(0.999907 0.000165638 0)
(0.999913 0.00140474 0)
(1.00032 0.000666003 0)
(0.999722 0.000958127 0)
(0.999441 0.00164658 0)
(0.999528 0.00133234 0)
(0.999233 0.00173523 0)
(0.999576 0.00229594 0)
(1.00051 0.00228581 0)
(1.00075 0.00269248 0)
(1.0004 0.00354545 0)
(1.00039 0.00391975 0)
(1.00083 0.0037921 0)
(1.00132 0.00376438 0)
(1.00175 0.00400688 0)
(1.00211 0.00428924 0)
(1.00015 0.000799108 0)
(1.0004 -0.000147889 0)
(1.00007 0.000970991 0)
(1.00019 0.00074913 0)
(0.999947 0.000174816 0)
(0.999947 0.0012087 0)
(1.00029 0.000848118 0)
(0.999788 0.00101457 0)
(0.999469 0.00159932 0)
(0.999537 0.00142762 0)
(0.999318 0.00179151 0)
(0.999619 0.00235507 0)
(1.00053 0.00236834 0)
(1.00089 0.00262826 0)
(1.00056 0.00342259 0)
(1.0004 0.00391108 0)
(1.00075 0.00385496 0)
(1.00129 0.00372103 0)
(1.00179 0.00380039 0)
(1.00216 0.00400597 0)
(1.00013 0.000728188 0)
(1.00038 -4.32658e-05 0)
(1.0001 0.000827213 0)
(1.00014 0.000910881 0)
(0.999965 0.000248868 0)
(0.999994 0.00100608 0)
(1.00029 0.000962298 0)
(0.999845 0.00112159 0)
(0.999503 0.00158022 0)
(0.999558 0.00147974 0)
(0.999413 0.00183325 0)
(0.999676 0.00241611 0)
(1.00054 0.00248013 0)
(1.001 0.0025976 0)
(1.00073 0.00325848 0)
(1.00045 0.00383602 0)
(1.00068 0.00388524 0)
(1.00122 0.00372396 0)
(1.00178 0.00366936 0)
(1.00219 0.00376255 0)
(1.00012 0.000653972 0)
(1.00036 6.29371e-05 0)
(1.00014 0.000687165 0)
(1.00011 0.00103018 0)
(0.999962 0.000376335 0)
(1.00005 0.000826237 0)
(1.00032 0.000996544 0)
(0.9999 0.0012554 0)
(0.999533 0.00161494 0)
(0.999589 0.00150475 0)
(0.999519 0.00183494 0)
(0.999752 0.00244919 0)
(1.00055 0.00258429 0)
(1.00108 0.00262209 0)
(1.0009 0.00308082 0)
(1.00055 0.00368113 0)
(1.00064 0.00385751 0)
(1.00113 0.00372972 0)
(1.00172 0.00360503 0)
(1.00219 0.00358699 0)
(1.00011 0.000578455 0)
(1.00034 0.000173696 0)
(1.00019 0.000549235 0)
(1.00009 0.00109444 0)
(0.999942 0.000558423 0)
(1.00009 0.000694752 0)
(1.00037 0.000940055 0)
(0.999968 0.00136551 0)
(0.999556 0.00172407 0)
(0.999614 0.00155831 0)
(0.999636 0.001794 0)
(0.999853 0.00244834 0)
(1.00057 0.00267721 0)
(1.00113 0.00267918 0)
(1.00104 0.00296036 0)
(1.00068 0.00346543 0)
(1.00063 0.00375797 0)
(1.00104 0.00371009 0)
(1.00164 0.00357596 0)
(1.00214 0.00348826 0)
(1.0001 0.000501655 0)
(1.00031 0.00028409 0)
(1.00023 0.000442281 0)
(1.0001 0.00109471 0)
(0.999909 0.000764166 0)
(1.00012 0.000637842 0)
(1.00045 0.000828384 0)
(1.00006 0.00141685 0)
(0.999584 0.00186591 0)
(0.99962 0.00165617 0)
(0.99975 0.0017361 0)
(0.999984 0.0023831 0)
(1.00061 0.0027497 0)
(1.00115 0.00275259 0)
(1.00114 0.00290388 0)
(1.0008 0.00325783 0)
(1.00068 0.00357482 0)
(1.00098 0.00364034 0)
(1.00155 0.00354283 0)
(1.00207 0.00343907 0)
(1.00009 0.000430248 0)
(1.00027 0.000381265 0)
(1.00027 0.000368506 0)
(1.00012 0.00103547 0)
(0.999874 0.000969652 0)
(1.00011 0.000668826 0)
(1.00053 0.000705346 0)
(1.00019 0.00139606 0)
(0.999623 0.00200287 0)
(0.999604 0.0018047 0)
(0.999844 0.00170548 0)
(1.00014 0.00224729 0)
(1.00068 0.00274729 0)
(1.00117 0.00284316 0)
(1.0012 0.00288802 0)
(1.00091 0.00310749 0)
(1.00076 0.00335353 0)
(1.00097 0.00349268 0)
(1.00148 0.00347893 0)
(1.00199 0.00339792 0)
(1.00008 0.000361451 0)
(1.00023 0.000471034 0)
(1.00029 0.00032634 0)
(1.00016 0.000926486 0)
(0.999848 0.00114543 0)
(1.00008 0.000773499 0)
(1.00061 0.000598786 0)
(1.00036 0.00129177 0)
(0.999694 0.00210117 0)
(0.999572 0.00201266 0)
(0.999898 0.00173719 0)
(1.00031 0.00209257 0)
(1.0008 0.0026565 0)
(1.0012 0.00290327 0)
(1.00123 0.00292797 0)
(1.00098 0.00301212 0)
(1.00082 0.00316151 0)
(1.00101 0.00328622 0)
(1.00145 0.00335615 0)
(1.00193 0.00333845 0)
(1.00008 0.000298953 0)
(1.00019 0.000541285 0)
(1.0003 0.000329602 0)
(1.00022 0.000785462 0)
(0.999839 0.00125557 0)
(1.00002 0.000938867 0)
(1.00066 0.000543177 0)
(1.00055 0.00112603 0)
(0.999812 0.00212029 0)
(0.999535 0.00223522 0)
(0.999899 0.00183876 0)
(1.00045 0.00195168 0)
(1.00097 0.00249494 0)
(1.00128 0.00287741 0)
(1.00125 0.00299558 0)
(1.001 0.00298233 0)
(1.00087 0.00301964 0)
(1.00105 0.00307789 0)
(1.00147 0.00316546 0)
(1.00191 0.0032285 0)
(1.00007 0.000247609 0)
(1.00015 0.000585102 0)
(1.00028 0.00036451 0)
(1.00029 0.00064347 0)
(0.999855 0.00129814 0)
(0.999937 0.00114248 0)
(1.00066 0.000562693 0)
(1.00074 0.000940802 0)
(0.999986 0.00204635 0)
(0.999517 0.00242418 0)
(0.999847 0.00202266 0)
(1.00055 0.00186783 0)
(1.00115 0.0022802 0)
(1.00141 0.00276652 0)
(1.00129 0.00301443 0)
(1.00099 0.0030207 0)
(1.00086 0.0029422 0)
(1.00107 0.00290866 0)
(1.00152 0.00294883 0)
(1.00194 0.00305147 0)
(1.00007 0.000208189 0)
(1.00011 0.000598722 0)
(1.00025 0.000431002 0)
(1.00035 0.000520953 0)
(0.999901 0.00126501 0)
(0.999854 0.00134175 0)
(1.00062 0.000668091 0)
(1.00092 0.000778701 0)
(1.00021 0.00187839 0)
(0.999544 0.00254061 0)
(0.999756 0.00225813 0)
(1.00057 0.00187974 0)
(1.00132 0.00205923 0)
(1.00159 0.00257629 0)
(1.00137 0.00295855 0)
(1.00098 0.00306753 0)
(1.00081 0.00294759 0)
(1.00104 0.00280044 0)
(1.00155 0.00275389 0)
(1.00201 0.00283348 0)
(1.00006 0.000180987 0)
(1.00008 0.00058572 0)
(1.0002 0.000512978 0)
(1.00039 0.000434648 0)
(0.999976 0.00116313 0)
(0.999784 0.00150428 0)
(1.00053 0.000845321 0)
(1.00106 0.000668667 0)
(1.00048 0.00163592 0)
(0.999638 0.00255358 0)
(0.999653 0.00248961 0)
(1.00051 0.00198632 0)
(1.00145 0.00189916 0)
(1.0018 0.00231414 0)
(1.00152 0.00282181 0)
(1.00099 0.00306379 0)
(1.00072 0.0030005 0)
(1.00095 0.00277675 0)
(1.00153 0.00261175 0)
(1.00208 0.00262057 0)
(1.00005 0.000165825 0)
(1.00006 0.000551224 0)
(1.00014 0.00059577 0)
(1.00042 0.000393215 0)
(1.00007 0.00101557 0)
(0.999742 0.00160278 0)
(1.0004 0.00106735 0)
(1.00113 0.000631486 0)
(1.00076 0.00136726 0)
(0.999811 0.0024473 0)
(0.999573 0.00267145 0)
(1.00038 0.00216815 0)
(1.00148 0.00183303 0)
(1.00201 0.00204858 0)
(1.00174 0.00258691 0)
(1.00108 0.00299264 0)
(1.00065 0.0030396 0)
(1.00081 0.00282696 0)
(1.00144 0.00255347 0)
(1.00211 0.00244957 0)
(1.00004 0.00016091 0)
(1.00005 0.000499461 0)
(1.00008 0.00067148 0)
(1.00042 0.000397914 0)
(1.00018 0.000855479 0)
(0.999743 0.00161891 0)
(1.00025 0.00130339 0)
(1.00113 0.000687433 0)
(1.00102 0.00112779 0)
(1.00006 0.0022322 0)
(0.999552 0.00275882 0)
(1.0002 0.00238987 0)
(1.00142 0.00185927 0)
(1.00217 0.00184933 0)
(1.00201 0.00228881 0)
(1.00125 0.00282956 0)
(1.00063 0.00303421 0)
(1.00064 0.00289833 0)
(1.00126 0.00258548 0)
(1.00207 0.00235505 0)
(1.00003 0.0001638 0)
(1.00005 0.00043888 0)
(1.00003 0.000724709 0)
(1.00039 0.000447528 0)
(1.00029 0.000713301 0)
(0.999789 0.001553 0)
(1.00011 0.00151168 0)
(1.00106 0.00082907 0)
(1.00123 0.000951485 0)
(1.00036 0.00194903 0)
(0.999618 0.00271998 0)
(1.00001 0.00259278 0)
(1.00126 0.00197831 0)
(1.00224 0.00172928 0)
(1.00227 0.00200349 0)
(1.0015 0.0025657 0)
(1.00069 0.00295211 0)
(1.0005 0.00294556 0)
(1.00103 0.0026672 0)
(1.00192 0.00235241 0)
(1.00002 0.000171353 0)
(1.00005 0.000381362 0)
(0.999998 0.000748497 0)
(1.00034 0.000525017 0)
(1.00038 0.000606643 0)
(0.999879 0.00141985 0)
(0.999992 0.00165754 0)
(1.00093 0.0010248 0)
(1.00137 0.000853702 0)
(1.00067 0.00165266 0)
(0.99978 0.00256124 0)
(0.999867 0.00271674 0)
(1.00102 0.00216548 0)
(1.00219 0.00169942 0)
(1.00247 0.00177668 0)
(1.00181 0.00225918 0)
(1.00086 0.00276786 0)
(1.00043 0.0029377 0)
(1.0008 0.00275119 0)
(1.00168 0.00241733 0)
(1.00001 0.000180434 0)
(1.00006 0.000332765 0)
(0.999978 0.000743166 0)
(1.00028 0.000612639 0)
(1.00045 0.000547163 0)
(1 0.00124906 0)
(0.999924 0.00171867 0)
(1.00076 0.00123996 0)
(1.00142 0.000845886 0)
(1.00097 0.00138611 0)
(1.00002 0.00231205 0)
(0.999807 0.00272889 0)
(1.00075 0.00235225 0)
(1.00203 0.00177331 0)
(1.00259 0.00162381 0)
(1.00212 0.0019709 0)
(1.00114 0.00250445 0)
(1.00047 0.00283893 0)
(1.0006 0.00280026 0)
(1.0014 0.00250556 0)
(1 0.000187772 0)
(1.00007 0.00029862 0)
(0.999975 0.000712521 0)
(1.00022 0.000695367 0)
(1.00048 0.000535699 0)
(1.00014 0.00107711 0)
(0.999914 0.00169129 0)
(1.00058 0.00143554 0)
(1.00139 0.000925645 0)
(1.00122 0.00118252 0)
(1.00032 0.00201473 0)
(0.999848 0.00262641 0)
(1.00051 0.00248019 0)
(1.00178 0.0019155 0)
(1.00259 0.00156699 0)
(1.00238 0.00172991 0)
(1.00147 0.00221423 0)
(1.00063 0.00264512 0)
(1.00049 0.00277585 0)
(1.00111 0.00257555 0)
(0.999998 0.000191176 0)
(1.00008 0.000281383 0)
(0.999988 0.000662764 0)
(1.00017 0.000759608 0)
(1.00049 0.000564629 0)
(1.00027 0.000929726 0)
(0.999962 0.00158929 0)
(1.00043 0.00157473 0)
(1.00128 0.00106204 0)
(1.00138 0.00106023 0)
(1.00063 0.00172212 0)