/*--------------------------------*- C++ -*----------------------------------*\
| =========                 |                                                 |
| \\      /  F ield         | OpenFOAM: The Open Source CFD Toolbox           |
|  \\    /   O peration     | Version:  v2012                                 |
|   \\  /    A nd           | Website:  www.openfoam.com                      |
|    \\/     M anipulation  |                                                 |
\*---------------------------------------------------------------------------*/
FoamFile
{
    version     2.0;
    format      ascii;
    class       volScalarField;
    location    "3.1";
    object      p;
}
// * * * * * * * * * * * * * * * * * * * * * * * * * * * * * * * * * * * * * //

dimensions      [0 2 -2 0 0 0 0];


internalField   nonuniform List<scalar> 
17600
(
-1.91074e-10
-0.000862641
-0.00161518
-0.00118075
-0.00166443
-0.00231575
-0.00256405
-0.00304137
-0.00369328
-0.00392344
-0.00400607
-0.00421698
-0.00430511
-0.00446899
-0.00396473
-0.00375469
-0.00253295
-0.00150161
0.00101749
0.00464347
1.70052e-06
-0.000863132
-0.00161548
-0.00118319
-0.00166376
-0.00231752
-0.00256331
-0.00304326
-0.00369222
-0.00392622
-0.00400428
-0.00422091
-0.00430246
-0.00447645
-0.00396015
-0.00377122
-0.00252213
-0.00154165
0.00104093
0.00440176
4.2442e-06
-0.000863996
-0.00161629
-0.00118696
-0.00166248
-0.00232015
-0.00256215
-0.00304616
-0.00369055
-0.00393016
-0.00400186
-0.00422677
-0.00429974
-0.00448787
-0.00395655
-0.00379516
-0.00251173
-0.00159666
0.00105366
0.00399936
7.04185e-06
-0.000863917
-0.00161777
-0.00119134
-0.00166116
-0.0023228
-0.00256101
-0.00304931
-0.0036889
-0.00393438
-0.00399983
-0.00423313
-0.0042983
-0.00450035
-0.00395576
-0.0038189
-0.00250801
-0.00164612
0.00102933
0.00360192
1.04388e-05
-0.000862689
-0.00162024
-0.00119648
-0.0016598
-0.00232548
-0.00255991
-0.00305272
-0.00368725
-0.00393897
-0.00399783
-0.00424004
-0.00429701
-0.00451396
-0.00395503
-0.00384349
-0.00250733
-0.00169356
0.000966669
0.00323284
1.46463e-05
-0.000860667
-0.0016238
-0.00120244
-0.00165833
-0.00232829
-0.00255874
-0.00305641
-0.00368547
-0.00394389
-0.00399552
-0.00424745
-0.00429543
-0.0045286
-0.00395406
-0.00386946
-0.00250934
-0.00174338
0.000869815
0.00289429
1.95738e-05
-0.00085823
-0.00162835
-0.00120912
-0.00165668
-0.0023312
-0.00255736
-0.00306031
-0.00368354
-0.00394906
-0.00399284
-0.00425527
-0.00429377
-0.00454404
-0.00395406
-0.00389575
-0.00251751
-0.00179527
0.000741079
0.002575
2.50504e-05
-0.000855642
-0.00163358
-0.0012164
-0.00165481
-0.0023342
-0.00255571
-0.00306442
-0.00368151
-0.00395451
-0.00398985
-0.00426354
-0.00429231
-0.00456018
-0.00395606
-0.00392138
-0.00253521
-0.00184734
0.000581055
0.00226663
3.09653e-05
-0.000853051
-0.00163922
-0.00122418
-0.0016527
-0.00233729
-0.00255381
-0.00306876
-0.00367944
-0.00396023
-0.00398664
-0.00427225
-0.00429134
-0.00457679
-0.0039609
-0.0039457
-0.00256433
-0.00189925
0.000391192
0.00196263
3.72845e-05
-0.000850529
-0.00164504
-0.00123242
-0.00165035
-0.0023405
-0.00255168
-0.00307337
-0.0036774
-0.00396624
-0.00398331
-0.0042813
-0.00429121
-0.00459341
-0.00396957
-0.00396803
-0.00260618
-0.00195191
0.000174789
0.0016572
4.4015e-05
-0.000848108
-0.0016509
-0.00124108
-0.00164777
-0.00234386
-0.00254935
-0.00307824
-0.00367543
-0.00397246
-0.00397998
-0.00429047
-0.00429235
-0.00460946
-0.00398313
-0.003988
-0.00266159
-0.00200703
-6.34789e-05
0.00134536
5.11739e-05
-0.000845806
-0.00165673
-0.00125013
-0.00164499
-0.00234736
-0.00254687
-0.00308334
-0.00367359
-0.00397878
-0.00397684
-0.00429949
-0.00429536
-0.00462431
-0.00400252
-0.00400558
-0.00273093
-0.00206572
-0.000317989
0.00102364
5.87756e-05
-0.000843632
-0.00166249
-0.00125955
-0.00164203
-0.00235099
-0.00254427
-0.00308863
-0.00367196
-0.00398506
-0.00397414
-0.00430796
-0.00430082
-0.00463747
-0.00402847
-0.00402119
-0.00281424
-0.00213567
-0.000582811
0.000690525
6.68289e-05
-0.000841588
-0.00166814
-0.00126932
-0.00163892
-0.00235473
-0.00254161
-0.00309402
-0.00367066
-0.00399109
-0.00397219
-0.00431552
-0.00430928
-0.00464879
-0.00406127
-0.00403603
-0.00291057
-0.00221896
-0.000853145
0.000346114
7.53366e-05
-0.000839663
-0.00167367
-0.00127941
-0.00163568
-0.00235856
-0.00253896
-0.00309939
-0.00366987
-0.00399662
-0.00397135
-0.00432179
-0.00432112
-0.00465835
-0.00410082
-0.00405231
-0.0030178
-0.00231805
-0.00112622
-8.63905e-06
8.42943e-05
-0.000837835
-0.00167905
-0.00128978
-0.00163234
-0.0023624
-0.00253643
-0.00310458
-0.00366981
-0.00400134
-0.00397195
-0.00432654
-0.00433661
-0.00466645
-0.00414668
-0.00407258
-0.00313373
-0.00243508
-0.00140103
-0.000371787
9.36876e-05
-0.000836065
-0.00168428
-0.00130039
-0.00162897
-0.00236619
-0.00253419
-0.00310937
-0.00367073
-0.00400498
-0.00397429
-0.00432963
-0.00435582
-0.0046738
-0.00419815
-0.0040982
-0.00325699
-0.0025714
-0.00167751
-0.000740676
0.000103491
-0.000834296
-0.00168934
-0.00131116
-0.00162564
-0.00236979
-0.00253241
-0.00311353
-0.00367287
-0.00400733
-0.00397851
-0.00433115
-0.00437849
-0.00468153
-0.00425461
-0.00413414
-0.00338673
-0.00272683
-0.0019564
-0.00111294
0.000113666
-0.000832441
-0.00169426
-0.00132199
-0.00162247
-0.00237305
-0.00253133
-0.00311686
-0.00367642
-0.00400824
-0.00398467
-0.00433144
-0.00440398
-0.00469127
-0.00431532
-0.00418045
-0.00352285
-0.00290026
-0.00223899
-0.00148684
0.000124152
-0.00083038
-0.00169904
-0.00133279
-0.00161957
-0.00237581
-0.00253114
-0.00311915
-0.00368155
-0.00400766
-0.00399264
-0.00433102
-0.00443151
-0.00470462
-0.00437964
-0.00423823
-0.00366625
-0.00309035
-0.00252632
-0.00186108
0.000134872
-0.000827959
-0.00170374
-0.0013434
-0.00161714
-0.0023779
-0.00253204
-0.00312021
-0.00368829
-0.00400572
-0.00400204
-0.00433063
-0.00446034
-0.00472266
-0.0044476
-0.00430845
-0.00381843
-0.00329585
-0.00281867
-0.00223471
0.00014573
-0.000824976
-0.00170843
-0.00135366
-0.00161531
-0.00237919
-0.00253423
-0.00311992
-0.00369647
-0.00400286
-0.00401222
-0.00433112
-0.00448993
-0.00474592
-0.00452003
-0.00439204
-0.0039813
-0.00351636
-0.00311588
-0.00260712
0.000156587
-0.000821172
-0.00171317
-0.00136341
-0.00161423
-0.00237953
-0.00253787
-0.00311835
-0.00370565
-0.00399976
-0.00402243
-0.00433311
-0.00452025
-0.00477426
-0.00459777
-0.00448966
-0.00415704
-0.00375241
-0.00341799
-0.00297793
0.000167253
-0.000816218
-0.00171806
-0.00137251
-0.00161405
-0.00237885
-0.00254297
-0.00311573
-0.00371529
-0.00399656
-0.004032
-0.0043369
-0.0045517
-0.0048076
-0.00468101
-0.00460136
-0.00434766
-0.00400567
-0.00372634
-0.00334746
0.000177558
-0.000809725
-0.0017232
-0.00138082
-0.00161483
-0.00237731
-0.00254925
-0.00311265
-0.00372466
-0.00399507
-0.0040402
-0.0043429
-0.00458407
-0.00484627
-0.00476938
-0.00472605
-0.00455434
-0.00427899
-0.00404764
-0.00371828
0.000187263
-0.000801256
-0.00172867
-0.00138829
-0.00161656
-0.00237513
-0.00255623
-0.0031098
-0.00373296
-0.00399517
-0.00404683
-0.00435066
-0.00461714
-0.0048901
-0.00486241
-0.00485927
-0.00477048
-0.00457338
-0.0044009
-0.00409936
0.000195977
-0.000790275
-0.00173444
-0.00139462
-0.00161908
-0.00237269
-0.00256346
-0.00310767
-0.00373966
-0.00399698
-0.00405258
-0.00435852
-0.00465192
-0.00493821
-0.00496011
-0.00499934
-0.00499333
-0.00487641
-0.00476129
-0.00452824
0.000203414
-0.000776194
-0.00174048
-0.00139943
-0.00162197
-0.0023708
-0.00257009
-0.00310701
-0.00374436
-0.00400033
-0.00405738
-0.00436597
-0.00468911
-0.00499166
-0.0050653
-0.00515699
-0.00522932
-0.00519257
-0.00513534
-0.00495748
0.000209252
-0.0007585
-0.00174662
-0.00140473
-0.0016246
-0.00237033
-0.00257515
-0.00310817
-0.00374751
-0.004004
-0.00406289
-0.00437361
-0.00473033
-0.00506032
-0.00518337
-0.00532556
-0.00547496
-0.00552057
-0.00552026
-0.0053822
0.000212985
-0.000736713
-0.00175237
-0.00141034
-0.00162613
-0.00237219
-0.00257837
-0.00311108
-0.00375032
-0.00400734
-0.00407371
-0.00438762
-0.00477963
-0.00514128
-0.00531099
-0.00549977
-0.00572473
-0.00585662
-0.0059127
-0.00580393
0.000214238
-0.000710398
-0.00175697
-0.00141702
-0.00162579
-0.002377
-0.00258033
-0.00311474
-0.00375455
-0.0040114
-0.00409304
-0.00441137
-0.00483186
-0.00522924
-0.0054479
-0.00567998
-0.00597599
-0.00619693
-0.00631161
-0.00622421
0.00021273
-0.000679331
-0.00175934
-0.00142571
-0.00162283
-0.00238495
-0.00258261
-0.00311844
-0.00376303
-0.00401927
-0.00411873
-0.00444168
-0.00488488
-0.00532085
-0.00559455
-0.00586978
-0.00622887
-0.00653745
-0.00671412
-0.00664407
0.000208199
-0.000643557
-0.00175805
-0.0014371
-0.00161668
-0.00239596
-0.00258601
-0.00312219
-0.00377876
-0.00403177
-0.00414625
-0.0044781
-0.00493907
-0.00541343
-0.00574942
-0.00607177
-0.00648489
-0.00687469
-0.00711531
-0.00706285
0.000200488
-0.000603499
-0.00175151
-0.00145147
-0.00160735
-0.00240988
-0.002593
-0.00312783
-0.00380314
-0.00404684
-0.00417263
-0.00452029
-0.00499698
-0.00550613
-0.0059096
-0.0062863
-0.00674672
-0.00720693
-0.00751018
-0.00747847
0.000189574
-0.000559985
-0.00173826
-0.00146894
-0.0015955
-0.00242683
-0.00260702
-0.00313664
-0.00383526
-0.00406426
-0.00419532
-0.00456736
-0.00506193
-0.00559985
-0.00607168
-0.00651147
-0.00701706
-0.00753411
-0.00789494
-0.00788784
0.000175597
-0.000514055
-0.00171714
-0.0014904
-0.00158041
-0.00244717
-0.00263267
-0.00315174
-0.00386943
-0.00408556
-0.00421396
-0.00461759
-0.00513633
-0.00569652
-0.00623248
-0.00674358
-0.00729684
-0.0078584
-0.00826808
-0.00828729
0.000158894
-0.000466768
-0.00168738
-0.00151027
-0.00156969
-0.00247131
-0.00266982
-0.00316159
-0.00390492
-0.00411368
-0.00422953
-0.00466819
-0.00522115
-0.00579894
-0.00639006
-0.00697778
-0.00758492
-0.00818321
-0.00863039
-0.00867355
0.000139941
-0.000419197
-0.00164906
-0.00153139
-0.00156111
-0.00249886
-0.00271706
-0.00317075
-0.00394013
-0.0041507
-0.00424421
-0.00471596
-0.00531541
-0.00591044
-0.0065444
-0.00720897
-0.0078785
-0.00851142
-0.00898431
-0.00904458
0.000119419
-0.000372303
-0.00160304
-0.00155384
-0.00155556
-0.00252783
-0.00277459
-0.00318018
-0.0039723
-0.00419759
-0.00426154
-0.00475816
-0.0054159
-0.006034
-0.00669789
-0.0074331
-0.00817313
-0.0088436
-0.00933252
-0.00939995
9.81268e-05
-0.000326887
-0.00155081
-0.00157766
-0.00155358
-0.00255596
-0.00284235
-0.00319221
-0.00399891
-0.004254
-0.00428577
-0.00479344
-0.00551797
-0.00617076
-0.00685489
-0.00764864
-0.0084631
-0.00917728
-0.00967689
-0.00974091
7.72116e-05
-0.000283645
-0.00149408
-0.00160316
-0.00155608
-0.00258108
-0.00291943
-0.00320965
-0.00401793
-0.00431787
-0.00432125
-0.00482283
-0.00561644
-0.0063191
-0.00702001
-0.0078571
-0.00874268
-0.0095076
-0.0100181
-0.0100702
5.70819e-05
-0.000242876
-0.00143433
-0.00163153
-0.0015646
-0.00260105
-0.00300381
-0.00323515
-0.00402843
-0.00438578
-0.00437149
-0.00484986
-0.00570677
-0.00647513
-0.00719608
-0.0080611
-0.00900787
-0.00982886
-0.0103554
-0.0103911
3.82015e-05
-0.000204447
-0.00137262
-0.00166455
-0.00158126
-0.00261416
-0.00309223
-0.00327112
-0.00403124
-0.00445324
-0.00443766
-0.00487949
-0.00578641
-0.00663324
-0.00738325
-0.0082634
-0.00925728
-0.0101359
-0.0106863
-0.0107055
2.10332e-05
-0.000168355
-0.00130962
-0.00170368
-0.00160952
-0.00261948
-0.00317956
-0.00331898
-0.00402869
-0.00451542
-0.00451809
-0.00491699
-0.00585549
-0.00678735
-0.00757911
-0.00846709
-0.0094922
-0.010425
-0.011007
-0.011014
6.09092e-06
-0.000134832
-0.00124632
-0.00174942
-0.00165237
-0.00261706
-0.0032603
-0.00337919
-0.00402412
-0.00456815
-0.0046093
-0.00496629
-0.00591614
-0.00693205
-0.00777942
-0.00867462
-0.00971567
-0.0106939
-0.0113127
-0.0113146
-6.28044e-06
-0.000104273
-0.00118421
-0.00180147
-0.0017113
-0.00260931
-0.00333055
-0.00345137
-0.00402183
-0.00460891
-0.00470657
-0.00502944
-0.00597167
-0.00706324
-0.00797864
-0.00888639
-0.00993101
-0.0109421
-0.0115985
-0.0116032
-1.62921e-05
-7.84184e-05
-0.00112475
-0.00185618
-0.00178736
-0.00259995
-0.00338753
-0.0035337
-0.00402652
-0.00463745
-0.00480421
-0.00510654
-0.00602602
-0.00717875
-0.00817048
-0.00910038
-0.010141
-0.0111706
-0.0118609
-0.0118756
-2.47765e-05
-5.97179e-05
-0.00106707
-0.00190828
-0.00188031
-0.00259485
-0.00342934
-0.00362244
-0.00404248
-0.0046554
-0.00489618
-0.00519544
-0.0060829
-0.00727847
-0.00834871
-0.00931231
-0.0103473
-0.0113822
-0.0120989
-0.0121279
-3.23588e-05
-4.95202e-05
-0.000994861
-0.0019543
-0.00198813
-0.0025999
-0.00345595
-0.00371233
-0.00407263
-0.00466671
-0.00497743
-0.00529191
-0.00614501
-0.00736404
-0.00850824
-0.00951594
-0.0105491
-0.0115796
-0.0123133
-0.0123579
-3.93911e-05
-4.84327e-05
-0.000947034
-0.00199203
-0.00210748
-0.00261992
-0.00346985
-0.00379756
-0.00411722
-0.00467671
-0.00504544
-0.00539011
-0.00621298
-0.00743822
-0.008646
-0.00970444
-0.0107428
-0.011764
-0.0125056
-0.0125643
-4.68226e-05
-5.71649e-05
-0.000906821
-0.0020205
-0.00223476
-0.00265895
-0.00347548
-0.00387297
-0.00417276
-0.0046895
-0.00510013
-0.00548372
-0.00628472
-0.00750372
-0.00876128
-0.00987235
-0.0109234
-0.0119346
-0.0126766
-0.0127467
-5.66026e-05
-7.60963e-05
-0.000875658
-0.00203926
-0.00236593
-0.00271948
-0.00347811
-0.00393531
-0.00423466
-0.00470749
-0.00514315
-0.00556751
-0.00635621
-0.0075619
-0.0088551
-0.0100166
-0.0110859
-0.0120883
-0.0128254
-0.0129034
-6.99111e-05
-0.000105573
-0.000855472
-0.00204903
-0.00249645
-0.00280163
-0.00348325
-0.00398322
-0.00429843
-0.00473204
-0.00517667
-0.00563726
-0.00642172
-0.00761146
-0.00892847
-0.0101355
-0.0112261
-0.0122217
-0.0129499
-0.0130324
-8.65427e-05
-0.000144512
-0.000851339
-0.00205348
-0.00262146
-0.00290359
-0.00349628
-0.00401681
-0.00435853
-0.00476263
-0.00520275
-0.00568971
-0.00647457
-0.00764861
-0.00898055
-0.0102269
-0.0113405
-0.0123315
-0.0130479
-0.0131312
-0.000107184
-0.000192881
-0.000865876
-0.00205782
-0.00273694
-0.00302157
-0.00352252
-0.00403882
-0.00440964
-0.00479655
-0.00522341
-0.00572363
-0.00650865
-0.00766811
-0.00900828
-0.0102874
-0.011425
-0.0124135
-0.0131175
-0.013198
-0.000134289
-0.000251293
-0.000899317
-0.00206532
-0.00284129
-0.00315077
-0.00356602
-0.00405405
-0.00444804
-0.00482894
-0.00523943
-0.00573963
-0.00651931
-0.00766369
-0.00900675
-0.010313
-0.011475
-0.0124638
-0.0131564
-0.0132311
-0.000170868
-0.000318419
-0.00095131
-0.00208066
-0.00293509
-0.00328652
-0.00362815
-0.00406754
-0.00447188
-0.00485369
-0.00524928
-0.00573894
-0.00650404
-0.00762891
-0.00896968
-0.0102979
-0.0114838
-0.0124772
-0.0131598
-0.0132283
-0.000219477
-0.000395275
-0.0010213
-0.00210803
-0.00302049
-0.00342458
-0.00370805
-0.00408393
-0.00448151
-0.00486541
-0.0052495
-0.00572168
-0.00646151
-0.00755823
-0.00888972
-0.0102344
-0.0114435
-0.0124466
-0.013123
-0.0131859
-0.000282138
-0.000483909
-0.0011086
-0.00215107
-0.00310088
-0.00356166
-0.00380355
-0.00410684
-0.00447862
-0.00486024
-0.00523528
-0.00568586
-0.00638982
-0.0074471
-0.00875923
-0.0101142
-0.0113461
-0.0123632
-0.0130388
-0.0130983
-0.000360979
-0.000583819
-0.0012142
-0.0022135
-0.00317995
-0.00369538
-0.00391203
-0.00413943
-0.00446621
-0.00483573
-0.00520104
-0.00562701
-0.00628561
-0.00729068
-0.0085705
-0.00992676
-0.01118
-0.0122156
-0.0128975
-0.0129596
-0.000458453
-0.000697944
-0.0013379
-0.00229768
-0.00326223
-0.0038246
-0.00403071
-0.00418411
-0.0044482
-0.00479061
-0.00514092
-0.00553894
-0.00614397
-0.00708339
-0.00831488
-0.00965942
-0.0109298
-0.011988
-0.0126849
-0.0127578
-0.000577262
-0.000828265
-0.00147987
-0.00240537
-0.00335301
-0.00395041
-0.00415681
-0.00424255
-0.00442929
-0.00472562
-0.00505058
-0.0054147
-0.00595807
-0.00681772
-0.00798134
-0.00929556
-0.010573
-0.0116567
-0.012378
-0.0124678
-0.000720028
-0.00097727
-0.0016404
-0.00253771
-0.00345703
-0.00407533
-0.00428836
-0.00431652
-0.00441595
-0.00464513
-0.00492836
-0.00524786
-0.00571888
-0.00648227
-0.00755463
-0.00881335
-0.0100782
-0.0111851
-0.0119355
-0.01206
-0.000889111
-0.00114741
-0.00182134
-0.00269517
-0.00357838
-0.00420199
-0.00442385
-0.00440712
-0.00441737
-0.00455916
-0.00477763
-0.00503423
-0.00541597
-0.00606046
-0.0070122
-0.00818573
-0.00942004
-0.0105288
-0.011317
-0.0115003
-0.00108939
-0.00134311
-0.00202271
-0.00287514
-0.00372001
-0.00433371
-0.00456231
-0.00451432
-0.0044419
-0.00448509
-0.0046119
-0.00477431
-0.00503642
-0.00552817
-0.00632185
-0.00736292
-0.00852056
-0.00962527
-0.0104648
-0.0107407
-0.00133425
-0.00157042
-0.00224022
-0.00307438
-0.00388398
-0.00447463
-0.00470486
-0.00463587
-0.00449322
-0.00444087
-0.00446088
-0.00448642
-0.00457591
-0.00485903
-0.00543281
-0.0062789
-0.00730531
-0.00837537
-0.00928121
-0.00970666
-0.00162693
-0.00185266
-0.00247055
-0.00329258
-0.00407188
-0.00462761
-0.00485012
-0.00476899
-0.00457203
-0.00443273
-0.0043579
-0.00423906
-0.00407693
-0.00403196
-0.0042392
-0.0047664
-0.00557429
-0.00654944
-0.00755395
-0.00825204
-0.00194217
-0.0021518
-0.00276512
-0.00356116
-0.00428611
-0.00479132
-0.00499524
-0.00491298
-0.00468255
-0.00445892
-0.00431515
-0.00412923
-0.00376857
-0.0032197
-0.00268202
-0.00242203
-0.00261185
-0.00325269
-0.00417808
-0.00513793
-0.00228633
-0.00248922
-0.00312317
-0.00387959
-0.00452388
-0.00496086
-0.00513825
-0.00506755
-0.00483367
-0.00452663
-0.00422097
-0.00406699
-0.00396673
-0.00335746
-0.00208961
-0.000814528
-6.10337e-06
0.000394084
0.000661898
0.000841667
-0.00271303
-0.00289757
-0.00349743
-0.004202
-0.0047679
-0.00512802
-0.00527282
-0.0052048
-0.00500743
-0.00473331
-0.0040342
-0.0028339
-0.00158247
-0.000495409
0.000385912
0.00117025
0.00196858
0.00275799
0.00337281
0.00350533
-0.00324965
-0.00338836
-0.00388651
-0.00450491
-0.00499347
-0.00526998
-0.00536826
-0.00525978
-0.00460164
-0.00347716
-0.00236882
-0.00144444
-0.000667298
6.52654e-05
0.000915408
0.00190021
0.00295138
0.0039304
0.00461464
0.00466747
-0.00387854
-0.00397911
-0.00432284
-0.00475852
-0.00511738
-0.00531514
-0.00503121
-0.00431686
-0.00346688
-0.0026677
-0.00196365
-0.00128883
-0.000512273
0.000451821
0.00156964
0.00277707
0.00397243
0.00501062
0.00567492
0.00564223
-0.0045942
-0.00466899
-0.0048919
-0.00493828
-0.00478617
-0.00452621
-0.0041575
-0.00369687
-0.00316934
-0.00255788
-0.00184128
-0.00100546
-2.72392e-05
0.00109528
0.00232854
0.00361026
0.00484393
0.00588394
0.00651116
0.00639904
-0.00539254
-0.00544394
-0.00511497
-0.00470859
-0.00434078
-0.00403155
-0.00375961
-0.00343206
-0.00296983
-0.0023304
-0.00151951
-0.00056486
0.000510933
0.00169644
0.00297187
0.00427642
0.0055089
0.00652088
0.00709367
0.00690694
-0.00603266
-0.00591158
-0.00535931
-0.00469136
-0.00414171
-0.00375255
-0.00344781
-0.0031139
-0.00263662
-0.00197137
-0.00112833
-0.000136963
0.000975234
0.00219074
0.00347856
0.00477981
0.00599639
0.00697975
0.00751036
0.00726874
-0.00652102
-0.00630755
-0.00563442
-0.00479514
-0.00405864
-0.00352218
-0.00312891
-0.00274695
-0.0022617
-0.00160894
-0.000774779
0.000221754
0.00135219
0.0025845
0.00387935
0.00517582
0.00637711
0.00733576
0.00783265
0.00754917
-0.00693365
-0.00665458
-0.00587276
-0.00489612
-0.00400563
-0.00333267
-0.00284282
-0.00241525
-0.00192539
-0.00128692
-0.00046808
0.000524044
0.00166237
0.00290502
0.00420494
0.00549717
0.00668457
0.00762117
0.00808969
0.00777327
-0.00726746
-0.00693493
-0.00607177
-0.00498761
-0.00397587
-0.00319155
-0.00261939
-0.00214683
-0.0016434
-0.00101314
-0.00020858
0.000774267
0.00190988
0.00315737
0.00446077
0.0057494
0.00692513
0.00784363
0.00828986
0.00794894
-0.0075173
-0.00715117
-0.00622703
-0.00506757
-0.00397353
-0.00310891
-0.00247131
-0.00195364
-0.00142423
-0.000781509
2.55453e-05
0.00100547
0.0021364
0.00337778
0.00467604
0.00595694
0.00712114
0.00802481
0.00845433
0.00809581
-0.00767075
-0.00729256
-0.00634367
-0.00514863
-0.00401254
-0.00310517
-0.00242678
-0.0018734
-0.00131672
-0.000654398
0.000170295
0.00116724
0.00231199
0.00356031
0.0048545
0.00612543
0.00727865
0.00817138
0.00859272
0.00822879
0.00982626
0.00460243
-0.00307457
-0.0084533
-0.00969223
-0.00853114
-0.00706513
-0.00605775
-0.00551275
-0.00526535
-0.00519205
-0.00522511
-0.00532482
-0.00546393
-0.00562277
-0.0057878
-0.00595126
-0.00610993
-0.00626177
-0.0064047
-0.00653787
-0.00666233
-0.0067801
-0.00689397
-0.00700678
-0.00712059
-0.00723564
-0.00735104
-0.00746635
-0.00758272
-0.00770165
-0.00782324
-0.00794564
-0.00806703
-0.00818724
-0.008307
-0.00842617
-0.00854369
-0.0086585
-0.00877034
-0.00887945
-0.00898609
-0.00909058
-0.00919312
-0.00929372
-0.00939218
-0.00948867
-0.00958374
-0.00967804
-0.00977169
-0.00986463
-0.00995663
-0.0100478
-0.0101385
-0.0102289
-0.0103191
-0.0104091
-0.0104988
-0.0105883
-0.0106776
-0.0107668
-0.0108558
-0.0109447
-0.0110335
-0.0111222
-0.0112109
-0.0112996
-0.011388
-0.011476
-0.011564
-0.0116517
-0.0117395
-0.011827
-0.0119143
-0.0120015
-0.0120886
-0.0121756
-0.0122625
-0.0123493
-0.0124363
-0.0125236
-0.0126111
-0.0126987
-0.0127864
-0.0128746
-0.0129633
-0.0130527
-0.0131421
-0.0132318
-0.0133219
-0.0134127
-0.013504
-0.0135959
-0.0136881
-0.0137808
-0.0138741
-0.0139681
-0.0140625
-0.0141574
-0.0142527
-0.0143482
-0.0144443
-0.0145406
-0.0146375
-0.0147345
-0.0148321
-0.0149299
-0.0150283
-0.0151269
-0.0152261
-0.0153255
-0.0154254
-0.0155256
-0.0156262
-0.0157271
-0.0158283
-0.0159301
-0.0160321
-0.0161349
-0.0162376
-0.0163411
-0.0164449
-0.0165496
-0.0166545
-0.01676
-0.0168658
-0.0169721
-0.0170789
-0.017186
-0.0172937
-0.0174017
-0.0175106
-0.0176197
-0.0177299
-0.0178403
-0.0179515
-0.0180631
-0.0181752
-0.018288
-0.018401
-0.0185152
-0.0186295
-0.0187451
-0.0188607
-0.0189779
-0.0190952
-0.0192132
-0.0193313
-0.0194502
-0.0195702
-0.0196902
-0.0198116
-0.0199329
-0.0200561
-0.0201787
-0.0203027
-0.0204266
-0.0205516
-0.0206777
-0.0208037
-0.0209316
-0.0210585
-0.0211878
-0.0213161
-0.0214462
-0.021576
-0.021707
-0.0218393
-0.021971
-0.022105
-0.0222377
-0.0223731
-0.0225074
-0.0226433
-0.0227801
-0.0229162
-0.0230553
-0.0231914
-0.0233315
-0.0234694
-0.0236095
-0.0237498
-0.0238884
-0.0240313
-0.0241698
-0.0243135
-0.0244536
-0.0245963
-0.024739
-0.0248796
-0.0250245
-0.025164
-0.0253089
-0.0254495
-0.0255889
-0.0257329
-0.025864
-0.0260052
-0.0261208
-0.0262328
0.0089648
0.00441002
-0.00299798
-0.0083214
-0.00961262
-0.00849289
-0.00704105
-0.00604062
-0.00550029
-0.00525579
-0.00518425
-0.00521845
-0.00531899
-0.00545875
-0.00561813
-0.00578361
-0.00594746
-0.00610647
-0.00625862
-0.00640182
-0.00653524
-0.00665991
-0.00677788
-0.00689191
-0.00700486
-0.00711879
-0.00723396
-0.00734945
-0.00746485
-0.0075813
-0.0077003
-0.00782196
-0.00794442
-0.00806587
-0.00818613
-0.00830594
-0.00842515
-0.00854273
-0.00865758
-0.00876946
-0.0088786
-0.00898528
-0.0090898
-0.00919238
-0.00929301
-0.00939149
-0.00948802
-0.00958311
-0.00967743
-0.0097711
-0.00986407
-0.00995609
-0.0100473
-0.010138
-0.0102285
-0.0103186
-0.0104086
-0.0104983
-0.0105878
-0.0106772
-0.0107664
-0.0108554
-0.0109443
-0.0110331
-0.0111219
-0.0112106
-0.0112993
-0.0113877
-0.0114757
-0.0115637
-0.0116514
-0.0117392
-0.0118267
-0.0119141
-0.0120012
-0.0120883
-0.0121754
-0.0122623
-0.0123491
-0.0124361
-0.0125234
-0.0126109
-0.0126985
-0.0127862
-0.0128744
-0.0129631
-0.0130525
-0.0131419
-0.0132316
-0.0133217
-0.0134125
-0.0135038
-0.0135957
-0.0136879
-0.0137807
-0.013874
-0.0139679
-0.0140624
-0.0141573
-0.0142525
-0.0143481
-0.0144441
-0.0145405
-0.0146373
-0.0147344
-0.014832
-0.0149298
-0.0150281
-0.0151268
-0.015226
-0.0153254
-0.0154253
-0.0155255
-0.0156261
-0.015727
-0.0158282
-0.01593
-0.016032
-0.0161348
-0.0162375
-0.016341
-0.0164448
-0.0165495
-0.0166544
-0.0167599
-0.0168657
-0.0169721
-0.0170788
-0.0171859
-0.0172937
-0.0174016
-0.0175105
-0.0176196
-0.0177298
-0.0178402
-0.0179514
-0.018063
-0.0181752
-0.0182879
-0.018401
-0.0185152
-0.0186294
-0.018745
-0.0188606
-0.0189779
-0.0190951
-0.0192131
-0.0193313
-0.0194502
-0.0195702
-0.0196901
-0.0198116
-0.0199328
-0.0200561
-0.0201786
-0.0203026
-0.0204266
-0.0205516
-0.0206776
-0.0208037
-0.0209315
-0.0210584
-0.0211878
-0.0213161
-0.0214462
-0.021576
-0.0217069
-0.0218393
-0.0219709
-0.0221049
-0.0222376
-0.022373
-0.0225074
-0.0226432
-0.0227801
-0.0229162
-0.0230552
-0.0231914
-0.0233315
-0.0234694
-0.0236094
-0.0237498
-0.0238884
-0.0240312
-0.0241697
-0.0243135
-0.0244536
-0.0245963
-0.024739
-0.0248796
-0.0250245
-0.025164
-0.0253089
-0.0254495
-0.0255889
-0.0257329
-0.0258639
-0.0260052
-0.0261207
-0.0262328
0.00808394
0.00422658
-0.00282161
-0.00806936
-0.00946747
-0.0084347
-0.00700995
-0.00601703
-0.00548184
-0.00524168
-0.00517337
-0.00520982
-0.00531189
-0.00545272
-0.00561288
-0.00577895
-0.00594328
-0.0061027
-0.0062552
-0.00639871
-0.00653239
-0.00665732
-0.00677551
-0.00688973
-0.00700284
-0.00711693
-0.00723223
-0.00734783
-0.00746333
-0.00757987
-0.00769896
-0.00782068
-0.00794321
-0.00806472
-0.00818504
-0.0083049
-0.00842416
-0.00854178
-0.00865668
-0.0087686
-0.00887778
-0.00898449
-0.00908905
-0.00919166
-0.00929231
-0.00939082
-0.00948738
-0.00958249
-0.00967683
-0.00977053
-0.00986352
-0.00995556
-0.0100468
-0.0101375
-0.010228
-0.0103182
-0.0104082
-0.0104979
-0.0105874
-0.0106768
-0.010766
-0.010855
-0.010944
-0.0110328
-0.0111215
-0.0112103
-0.0112989
-0.0113873
-0.0114754
-0.0115634
-0.0116511
-0.0117389
-0.0118264
-0.0119138
-0.012001
-0.0120881
-0.0121751
-0.012262
-0.0123488
-0.0124358
-0.0125231
-0.0126107
-0.0126983
-0.012786
-0.0128742
-0.012963
-0.0130523
-0.0131417
-0.0132314
-0.0133215
-0.0134123
-0.0135037
-0.0135956
-0.0136878
-0.0137805
-0.0138738
-0.0139678
-0.0140622
-0.0141571
-0.0142524
-0.014348
-0.014444
-0.0145403
-0.0146372
-0.0147343
-0.0148319
-0.0149296
-0.015028
-0.0151267
-0.0152259
-0.0153253
-0.0154252
-0.0155254
-0.015626
-0.0157269
-0.0158281
-0.0159299
-0.0160319
-0.0161347
-0.0162374
-0.016341
-0.0164447
-0.0165494
-0.0166543
-0.0167599
-0.0168656
-0.016972
-0.0170788
-0.0171859
-0.0172936
-0.0174015
-0.0175104
-0.0176196
-0.0177298
-0.0178401
-0.0179513
-0.0180629
-0.0181751
-0.0182879
-0.0184009
-0.0185151
-0.0186293
-0.018745
-0.0188605
-0.0189778
-0.019095
-0.0192131
-0.0193312
-0.0194501
-0.0195701
-0.0196901
-0.0198115
-0.0199328
-0.020056
-0.0201786
-0.0203026
-0.0204266
-0.0205515
-0.0206776
-0.0208036
-0.0209315
-0.0210584
-0.0211877
-0.0213161
-0.0214462
-0.0215759
-0.0217069
-0.0218392
-0.0219709
-0.0221049
-0.0222376
-0.022373
-0.0225074
-0.0226432
-0.0227801
-0.0229162
-0.0230552
-0.0231913
-0.0233314
-0.0234694
-0.0236094
-0.0237497
-0.0238883
-0.0240312
-0.0241697
-0.0243135
-0.0244536
-0.0245962
-0.024739
-0.0248796
-0.0250244
-0.025164
-0.0253089
-0.0254495
-0.0255889
-0.0257329
-0.0258639
-0.0260052
-0.0261207
-0.0262328
0.00726024
0.00406567
-0.00257391
-0.00773507
-0.00926592
-0.00835236
-0.00696609
-0.00598203
-0.00545345
-0.00522016
-0.00515744
-0.00519781
-0.00530246
-0.00544497
-0.00560626
-0.00577313
-0.00593808
-0.00609802
-0.00625096
-0.00639482
-0.00652882
-0.00665409
-0.0067726
-0.0068871
-0.00700046
-0.00711475
-0.00723023
-0.00734599
-0.00746162
-0.00757829
-0.00769749
-0.00781929
-0.0079419
-0.00806349
-0.00818388
-0.00830379
-0.0084231
-0.00854077
-0.00865573
-0.00876769
-0.00887691
-0.00898366
-0.00908826
-0.0091909
-0.00929159
-0.00939012
-0.00948671
-0.00958185
-0.00967622
-0.00976994
-0.00986295
-0.00995501
-0.0100463
-0.010137
-0.0102275
-0.0103177
-0.0104077
-0.0104974
-0.010587
-0.0106764
-0.0107656
-0.0108547
-0.0109436
-0.0110324
-0.0111212
-0.0112099
-0.0112986
-0.011387
-0.0114751
-0.0115631
-0.0116509
-0.0117386
-0.0118262
-0.0119135
-0.0120007
-0.0120878
-0.0121749
-0.0122618
-0.0123486
-0.0124356
-0.0125229
-0.0126105
-0.0126981
-0.0127858
-0.012874
-0.0129628
-0.0130521
-0.0131415
-0.0132313
-0.0133213
-0.0134122
-0.0135035
-0.0135954
-0.0136876
-0.0137804
-0.0138737
-0.0139676
-0.0140621
-0.014157
-0.0142523
-0.0143478
-0.0144439
-0.0145402
-0.0146371
-0.0147342
-0.0148318
-0.0149295
-0.0150279
-0.0151265
-0.0152258
-0.0153252
-0.015425
-0.0155252
-0.0156259
-0.0157268
-0.015828
-0.0159298
-0.0160318
-0.0161346
-0.0162373
-0.0163409
-0.0164446
-0.0165493
-0.0166542
-0.0167598
-0.0168656
-0.0169719
-0.0170787
-0.0171858
-0.0172935
-0.0174015
-0.0175104
-0.0176195
-0.0177297
-0.0178401
-0.0179513
-0.0180629
-0.018175
-0.0182878
-0.0184008
-0.018515
-0.0186293
-0.0187449
-0.0188605
-0.0189778
-0.019095
-0.019213
-0.0193311
-0.0194501
-0.0195701
-0.01969
-0.0198115
-0.0199327
-0.020056
-0.0201785
-0.0203025
-0.0204265
-0.0205515
-0.0206775
-0.0208036
-0.0209314
-0.0210583
-0.0211877
-0.021316
-0.0214461
-0.0215759
-0.0217069
-0.0218392
-0.0219709
-0.0221048
-0.0222376
-0.022373
-0.0225073
-0.0226432
-0.0227801
-0.0229161
-0.0230552
-0.0231913
-0.0233314
-0.0234693
-0.0236094
-0.0237497
-0.0238883
-0.0240312
-0.0241697
-0.0243135
-0.0244535
-0.0245962
-0.024739
-0.0248796
-0.0250244
-0.025164
-0.0253089
-0.0254494
-0.0255888
-0.0257329
-0.0258639
-0.0260052
-0.0261207
-0.0262328
0.00647604
0.00388663
-0.00230944
-0.00737212
-0.00904055
-0.00825941
-0.00691616
-0.00593886
-0.00541592
-0.00519071
-0.00513538
-0.0051812
-0.00528952
-0.00543444
-0.00559732
-0.00576533
-0.00593114
-0.00609176
-0.00624523
-0.00638953
-0.00652393
-0.00664962
-0.00676859
-0.00688352
-0.00699725
-0.00711185
-0.00722759
-0.00734357
-0.00745943
-0.0075763
-0.00769566
-0.00781758
-0.00794028
-0.00806198
-0.00818247
-0.00830247
-0.00842184
-0.00853957
-0.00865458
-0.0087666
-0.00887587
-0.00898268
-0.00908733
-0.00919001
-0.00929073
-0.0093893
-0.00948592
-0.00958111
-0.00967551
-0.00976926
-0.00986229
-0.00995438
-0.0100457
-0.0101364
-0.0102269
-0.0103172
-0.0104072
-0.010497
-0.0105865
-0.0106759
-0.0107652
-0.0108542
-0.0109432
-0.011032
-0.0111208
-0.0112095
-0.0112982
-0.0113867
-0.0114748
-0.0115627
-0.0116505
-0.0117383
-0.0118259
-0.0119132
-0.0120004
-0.0120876
-0.0121746
-0.0122615
-0.0123484
-0.0124354
-0.0125227
-0.0126102
-0.0126979
-0.0127856
-0.0128738
-0.0129626
-0.0130519
-0.0131413
-0.0132311
-0.0133211
-0.013412
-0.0135033
-0.0135952
-0.0136874
-0.0137802
-0.0138735
-0.0139675
-0.0140619
-0.0141568
-0.0142521
-0.0143477
-0.0144437
-0.0145401
-0.014637
-0.014734
-0.0148316
-0.0149294
-0.0150278
-0.0151264
-0.0152256
-0.015325
-0.0154249
-0.0155251