/*--------------------------------*- C++ -*----------------------------------*\
| =========                 |                                                 |
| \\      /  F ield         | OpenFOAM: The Open Source CFD Toolbox           |
|  \\    /   O peration     | Version:  v2012                                 |
|   \\  /    A nd           | Website:  www.openfoam.com                      |
|    \\/     M anipulation  |                                                 |
\*---------------------------------------------------------------------------*/
FoamFile
{
    version     2.0;
    format      ascii;
    class       volScalarField;
    location    "0.4";
    object      p;
}
// * * * * * * * * * * * * * * * * * * * * * * * * * * * * * * * * * * * * * //

dimensions      [0 2 -2 0 0 0 0];


internalField   nonuniform List<scalar> 
17600
(
-4.09109e-11
0.000441485
-0.00023203
-0.000207338
-8.04073e-06
0.00075339
0.000974264
0.00114605
0.00109206
0.00134789
0.00126358
0.00144296
0.00136593
0.00166509
0.00170286
0.00225162
0.00260405
0.00391393
0.00540527
0.00874112
4.7049e-07
0.000439402
-0.000230423
-0.000206833
-6.3697e-06
0.000752286
0.000974681
0.00114284
0.00109254
0.0013433
0.00126474
0.00143667
0.00136782
0.00165389
0.00170635
0.00222541
0.00261253
0.00385027
0.00541852
0.008434
1.00746e-06
0.000436641
-0.000227598
-0.000206581
-4.21238e-06
0.000750126
0.000975023
0.00113823
0.00109338
0.0013371
0.00126661
0.00142846
0.0013705
0.00164057
0.0017106
0.00219733
0.0026219
0.00378396
0.0054167
0.00801681
1.6909e-06
0.000433987
-0.000224399
-0.000207002
-2.06347e-06
0.000748158
0.000975093
0.00113388
0.00109416
0.00133076
0.00126851
0.0014199
0.00137314
0.00162666
0.00171462
0.00216852
0.00262911
0.00371825
0.00538563
0.00761032
2.71855e-06
0.000431381
-0.000220867
-0.000208144
5.18629e-07
0.000746484
0.000974888
0.00112963
0.00109479
0.00132407
0.00127047
0.00141069
0.00137605
0.00161154
0.00171901
0.00213733
0.00263454
0.00364858
0.00532467
0.00722673
4.12311e-06
0.000428761
-0.000216972
-0.000210009
3.71932e-06
0.000744788
0.000974441
0.00112515
0.00109534
0.00131683
0.00127264
0.00140068
0.00137942
0.0015951
0.00172376
0.00210386
0.00263727
0.00357441
0.0052352
0.00686771
5.84407e-06
0.000426116
-0.000212825
-0.000212547
7.46425e-06
0.00074293
0.000973905
0.00112034
0.00109596
0.00130907
0.00127512
0.00138992
0.00138324
0.00157754
0.00172844
0.00206881
0.00263528
0.00349696
0.00511823
0.00652882
7.81139e-06
0.000423407
-0.00020854
-0.000215634
1.16387e-05
0.000740925
0.00097346
0.00111518
0.00109676
0.00130079
0.00127794
0.00137844
0.0013874
0.00155903
0.00173247
0.00203295
0.00262616
0.00341753
0.00497444
0.00620386
9.9809e-06
0.000420578
-0.000204153
-0.000219149
1.61254e-05
0.000738794
0.000973215
0.00110963
0.0010978
0.00129198
0.0012811
0.00136626
0.00139177
0.00153976
0.00173507
0.0019972
0.00260775
0.00333678
0.00480499
0.0058866
1.23405e-05
0.000417587
-0.000199648
-0.000223031
2.08139e-05
0.000736525
0.000973217
0.00110364
0.00109912
0.00128263
0.00128455
0.00135345
0.0013961
0.00152016
0.00173532
0.00196247
0.00257836
0.00325461
0.00461226
0.0055714
1.49e-05
0.000414396
-0.000195003
-0.000227273
2.56303e-05
0.000734102
0.000973491
0.0010972
0.0011007
0.00127276
0.00128819
0.00134017
0.00140005
0.00150082
0.0017322
0.00192936
0.00253679
0.00316988
0.00440002
0.00525379
1.76768e-05
0.000410966
-0.000190199
-0.000231877
3.05432e-05
0.000731511
0.000974051
0.00109031
0.0011025
0.00126243
0.00129192
0.0013267
0.00140313
0.00148249
0.00172473
0.00189813
0.0024825
0.00308041
0.00417298
0.00493102
2.0689e-05
0.000407257
-0.000185221
-0.000236841
3.55436e-05
0.000728746
0.0009749
0.00108298
0.00110448
0.00125175
0.00129551
0.00131346
0.00140474
0.00146585
0.00171214
0.00186848
0.00241586
0.0029832
0.00393593
0.0046022
2.39511e-05
0.000403233
-0.000180054
-0.000242156
4.06279e-05
0.000725806
0.000976037
0.00107523
0.00110655
0.0012409
0.00129869
0.00130091
0.00140429
0.00145137
0.00169389
0.00183939
0.00233816
0.0028751
0.00369262
0.00426801
2.74721e-05
0.000398862
-0.000174682
-0.000247809
4.57863e-05
0.000722698
0.000977443
0.00106714
0.00110858
0.00123012
0.0013011
0.00128957
0.00140132
0.00143925
0.00166992
0.00180915
0.00225132
0.00275359
0.00344507
0.00393009
3.12571e-05
0.000394121
-0.000169095
-0.000253787
5.09941e-05
0.000719447
0.000979064
0.00105883
0.00111036
0.00121974
0.00130233
0.00127987
0.00139549
0.00142924
0.00164067
0.00177568
0.00215715
0.0026172
0.00319384
0.00359046
3.53079e-05
0.000389001
-0.00016329
-0.00026007
5.62048e-05
0.000716103
0.000980802
0.00105045
0.00111167
0.0012101
0.00130203
0.00127211
0.00138669
0.00142065
0.00160703
0.00173693
0.00205683
0.00246549
0.00293871
0.00325085
3.96115e-05
0.000383503
-0.000157271
-0.000266622
6.13438e-05
0.000712746
0.000982528
0.00104221
0.00111224
0.00120156
0.00129992
0.00126636
0.00137516
0.00141244
0.00156997
0.0016912
0.00195072
0.00229934
0.00267905
0.00291244
4.41354e-05
0.000377649
-0.000151043
-0.00027339
6.62964e-05
0.000709487
0.000984083
0.00103434
0.00111178
0.00119438
0.00129588
0.00126235
0.0013615
0.00140349
0.00153029
0.00163713
0.00183854
0.00212062
0.0024144
0.0025762
4.88367e-05
0.000371493
-0.000144639
-0.000280301
7.09097e-05
0.000706457
0.000985271
0.0010271
0.00111006
0.00118871
0.00129008
0.00125951
0.00134647
0.00139284
0.00148844
0.00157366
0.00171944
0.00193152
0.002145
0.00224277
5.365e-05
0.000365123
-0.000138115
-0.000287229
7.50052e-05
0.0007038
0.000985887
0.00102072
0.00110693
0.00118441
0.00128294
0.0012572
0.00133068
0.00137976
0.00144463
0.00150032
0.00159209
0.00173381
0.00187166
0.00191255
5.84787e-05
0.000358668
-0.000131547
-0.000294009
7.83873e-05
0.00070166
0.000985748
0.00101531
0.00110245
0.00118114
0.00127504
0.00125481
0.00131452
0.00136369
0.00139881
0.00141736
0.00145511
0.00152833
0.00159537
0.00158589
6.32052e-05
0.000352309
-0.000125044
-0.000300485
8.08591e-05
0.00070016
0.000984722
0.00101082
0.00109691
0.00117837
0.00126696
0.00125188
0.00129816
0.0013441
0.00135064
0.00132563
0.00130748
0.00131499
0.00131684
0.00126329
6.76706e-05
0.00034627
-0.000118728
-0.000306541
8.22382e-05
0.000699362
0.000982783
0.00100705
0.00109087
0.0011755
0.00125919
0.00124816
0.00128132
0.00132034
0.00129946
0.00122632
0.00114901
0.00109319
0.00103623
0.000945262
7.1658e-05
0.000340858
-0.000112696
-0.000312053
8.23615e-05
0.00069923
0.0009801
0.00100345
0.00108504
0.00117214
0.00125191
0.00124381
0.00126351
0.00129157
0.00124409
0.00112067
0.00098058
0.000862417
0.000753049
0.000631844
7.49011e-05
0.000336453
-0.000106996
-0.000316985
8.11312e-05
0.000699549
0.000977136
0.000999271
0.00107992
0.00116831
0.00124479
0.0012393
0.00124468
0.00125696
0.0011829
0.00100963
0.000804265
0.000623056
0.000466448
0.000322328
7.70892e-05
0.000333452
-0.00010165
-0.000321356
7.85979e-05
0.000699853
0.000974603
0.000993899
0.00107553
0.00116436
0.00123679
0.00123448
0.00122545
0.001216
0.00111396
0.000893438
0.000622975
0.000377175
0.000175833
1.53617e-05
7.78724e-05
0.000332252
-9.66069e-05
-0.000325278
7.5021e-05
0.000699397
0.000973223
0.00098725
0.00107164
0.00116109
0.00122698
0.00122813
0.00120616
0.00116905
0.00103543
0.000771169
0.000439403
0.000128514
-0.000118068
-0.00029051
7.68641e-05
0.00033323
-9.16519e-05
-0.000329097
7.09317e-05
0.000697263
0.000973339
0.000979577
0.00106749
0.00115943
0.00121548
0.00121868
0.00118643
0.00111732
0.000946374
0.000640839
0.000254734
-0.000118559
-0.000412338
-0.000595841
7.36604e-05
0.00033671
-8.63721e-05
-0.000333401
6.71158e-05
0.000692682
0.000974845
0.000971459
0.00106179
0.00115975
0.0012031
0.00120447
0.00116482
0.00106219
0.000847516
0.000500454
6.81791e-05
-0.000360713
-0.000702142
-0.000899092
6.78621e-05
0.00034292
-8.0107e-05
-0.000338994
6.43826e-05
0.000685394
0.000977215
0.000963889
0.00105314
0.00116146
0.00119068
0.00118407
0.00113931
0.00100509
0.000741036
0.000349082
-0.000122503
-0.000596913
-0.000982402
-0.00119625
5.91295e-05
0.000351919
-7.19298e-05
-0.00034692
6.31765e-05
0.000675561
0.000979355
0.000958254
0.00104081
0.00116348
0.00117938
0.00115658
0.00110735
0.000946653
0.000629887
0.000187436
-0.000319935
-0.000828189
-0.00124963
-0.0014819
4.72347e-05
0.000363501
-6.06251e-05
-0.000358238
6.34437e-05
0.000663694
0.000979601
0.000955952
0.00102507
0.0011637
0.00117046
0.00112249
0.00106569
0.000886013
0.000517894
1.86217e-05
-0.000525612
-0.00105672
-0.00150267
-0.00175105
3.20729e-05
0.000377127
-4.46398e-05
-0.000373572
6.452e-05
0.000650898
0.000975844
0.000957494
0.00100719
0.00115914
0.00116402
0.00108366
0.00101139
0.000820338
0.000408843
-0.00015187
-0.000738699
-0.00128551
-0.00174269
-0.0020004
1.36663e-05
0.000391898
-2.25057e-05
-0.000392956
6.49906e-05
0.000639066
0.000966394
0.00096208
0.000989198
0.00114702
0.00115825
0.00104297
0.000943409
0.000745285
0.000304087
-0.000317024
-0.000954579
-0.00151704
-0.00197296
-0.00222909
-7.80672e-06
0.000406586
6.77102e-06
-0.000422594
6.29812e-05
0.000630371
0.000950912
0.000967831
0.00097308
0.00112574
0.00114994
0.00100366
0.000864053
0.000656379
0.000200799
-0.000470507
-0.00116468
-0.00175044
-0.00219778
-0.00243917
-3.18301e-05
0.000419773
4.39089e-05
-0.000447043
5.61378e-05
0.000626133
0.000929957
0.000972172
0.000960457
0.00109516
0.00113491
0.000967433
0.000777834
0.000551216
9.30117e-05
-0.000609999
-0.00135946
-0.00197936
-0.00241937
-0.00263493
-5.7659e-05
0.000429979
8.92616e-05
-0.000471163
4.18314e-05
0.000626313
0.000904483
0.00097241
0.000952558
0.00105673
0.0011088
0.000933216
0.000689911
0.00043096
-2.50315e-05
-0.000739127
-0.00153238
-0.00219337
-0.00263465
-0.00282005
-8.44679e-05
0.000435665
0.000142464
-0.000491999
1.80877e-05
0.000629852
0.000876208
0.000965816
0.000949449
0.00101299
0.00106803
0.000898031
0.000605479
0.000300167
-0.000157358
-0.000865089
-0.00168271
-0.00238279
-0.00283562
-0.00299477
-0.000111182
0.000435347
0.000201995
-0.00050582
-1.5689e-05
0.000634585
0.000847347
0.000949975
0.000949724
0.000966838
0.00100988
0.000857254
0.000529278
0.000166077
-0.000304914
-0.000994764
-0.00181434
-0.00254225
-0.00301288
-0.00315519
-0.000136712
0.000427899
0.000264445
-0.000509382
-5.92395e-05
0.000637774
0.000819888
0.000922844
0.000950892
0.000922257
0.000933542
0.00080419
0.000463364
3.8353e-05
-0.000464043
-0.00113411
-0.00193364
-0.00267086
-0.00315848
-0.00329436
-0.00016017
0.000412729
0.000327208
-0.000500509
-0.000110755
0.000636616
0.000795236
0.000883065
0.000948923
0.000884295
0.000842234
0.000731433
0.000403595
-7.31189e-05
-0.000624769
-0.00128643
-0.00204935
-0.00277208
-0.00326769
-0.00340447
-0.000180854
0.000389716
0.000387219
-0.000478235
-0.000167097
0.000629034
0.000774088
0.000830568
0.000938527
0.000856239
0.000743143
0.000633667
0.000340478
-0.000162623
-0.000773316
-0.00144828
-0.00217053
-0.00285417
-0.00334033
-0.00347921
-0.000198245
0.000359197
0.000441727
-0.000442551
-0.00022554
0.000613672
0.000756775
0.00076609
0.000914655
0.000838204
0.000644131
0.000509521
0.000263692
-0.000231937
-0.000896454
-0.001607
-0.00230147
-0.00292881
-0.00338186
-0.00351591
-0.000212049
0.00032205
0.000488418
-0.000394412
-0.00028429
0.000589504
0.000743928
0.000690815
0.000871821
0.000827964
0.000555098
0.000363777
0.000162428
-0.000291102
-0.000986082
-0.00174574
-0.00243671
-0.00300614
-0.00340323
-0.00351731
-0.000222218
0.000279427
0.000525534
-0.000335553
-0.000340734
0.000555018
0.000736869
0.000608307
0.000803413
0.000818604
0.000486798
0.000208893
2.87754e-05
-0.000354575
-0.00104317
-0.00185042
-0.00256149
-0.00308807
-0.00341691
-0.00349166
-0.000228669
0.000233123
0.000551438
-0.000267831
-0.000390158
0.000509103
0.000735809
0.000523534
0.000704603
0.000800416
0.000445202
5.97396e-05
-0.000135828
-0.000437757
-0.00107969
-0.00191365
-0.0026594
-0.00316614
-0.00342951
-0.00344956
-0.000231296
0.000184255
0.000564642
-0.000193393
-0.000437097
0.000450596
0.000739778
0.000442044
0.000574825
0.000761798
0.000428007
-6.63845e-05
-0.000318405
-0.000552154
-0.00111213
-0.00193914
-0.00271933
-0.00322727
-0.0034386
-0.00339822
-0.00023028
0.000133636
0.000564057
-0.000115058
-0.000476238
0.000377454
0.000745685
0.000374019
0.000419148
0.000688256
0.000424512
-0.000153454
-0.000500848
-0.000700181
-0.00115724
-0.00193954
-0.00273833
-0.00326067
-0.00343697
-0.00333875
-0.000225862
8.26406e-05
0.000548847
-3.5093e-05
-0.000504612
0.000287346
0.000747856
0.000330516
0.000247862
0.000566474
0.000419727
-0.000194435
-0.00066103
-0.000871232
-0.0012289
-0.00193039
-0.0027229
-0.00326171
-0.0034188
-0.00326938
-0.000219084
3.27642e-05
0.000518672
4.35028e-05
-0.000519472
0.000180116
0.000738986
0.000315078
7.56196e-05
0.000393493
0.00039115
-0.000197579
-0.000775089
-0.00104351
-0.00133132
-0.00192943
-0.00268483
-0.00323317
-0.00338275
-0.00319084
-0.00021027
-1.46193e-05
0.000473773
0.000116862
-0.000517928
5.82719e-05
0.000709589
0.000324859
-7.71848e-05
0.000180793
0.00031431
-0.000181902
-0.000830528
-0.00119138
-0.00145131
-0.00195016
-0.00264059
-0.00318379
-0.00333243
-0.00310787
-0.000200236
-5.81483e-05
0.000415005
0.000180623
-0.000497553
-7.19104e-05
0.000648301
0.000352132
-0.000190719
-5.64461e-05
0.000176684
-0.0001724
-0.000834424
-0.00129053
-0.00156679
-0.00199161
-0.00260674
-0.00312759
-0.00327627
-0.00302823
-0.000190246
-9.64737e-05
0.000344432
0.000230119
-0.000457423
-0.000203331
0.000548053
0.000383183
-0.000253309
-0.000294991
-2.00917e-05
-0.000199152
-0.000805223
-0.00132823
-0.00165318
-0.00203692
-0.00258844
-0.00307941
-0.0032263
-0.00296148
-0.000181698
-0.000128479
0.000265413
0.000260102
-0.000400819
-0.000326564
0.000409753
0.000398729
-0.000268432
-0.000501231
-0.000260229
-0.000286016
-0.000769542
-0.00131191
-0.00168885
-0.00206684
-0.00257461
-0.00304517
-0.00319458
-0.00291991
-0.000175926
-0.000153961
0.000181783
0.000266225
-0.000333815
-0.000427899
0.000240411
0.000380423
-0.000248728
-0.000649673
-0.000517033
-0.000440254
-0.000762773
-0.00125976
-0.00166609
-0.00205851
-0.00254963
-0.00301628
-0.00318664
-0.0029177
-0.000174003
-0.000173718
9.7733e-05
0.000247021
-0.000264967
-0.000496108
5.16039e-05
0.000313997
-0.000210134
-0.000735127
-0.000753666
-0.000644438
-0.000814436
-0.00120246
-0.00159686
-0.00199537
-0.00249193
-0.00297816
-0.00319386
-0.00296227
-0.000176532
-0.000188986
1.75117e-05
0.000203884
-0.000204406
-0.000529944
-0.000139213
0.000195144
-0.000178189
-0.000762684
-0.000941543
-0.000870898
-0.000932137
-0.00117872
-0.00150218
-0.00188168
-0.00238124
-0.00290911
-0.0032
-0.00304475
-0.000183647
-0.000201522
-5.52644e-05
0.000140713
-0.000161743
-0.000536321
-0.000311138
3.53436e-05
-0.000183126
-0.000745851
-0.00106403
-0.00108566
-0.0010957
-0.00121622
-0.00142026
-0.00173533
-0.0022139
-0.00278386
-0.00317951
-0.00314295
-0.000195301
-0.000209479
-0.000118311
6.2966e-05
-0.000144013
-0.000523802
-0.000449705
-0.000147568
-0.00023985
-0.000712695
-0.00111696
-0.00125849
-0.00128031
-0.00131524
-0.00138977
-0.00158892
-0.00200722
-0.00259166
-0.00310065
-0.00322859
-0.000211591
-0.000222678
-0.000170983
-2.27338e-05
-0.000153684
-0.00050375
-0.000550771
-0.000333736
-0.000343027
-0.000699453
-0.00111796
-0.00136565
-0.00145403
-0.00145514
-0.00142884
-0.00148642
-0.00178986
-0.00234695
-0.00294375
-0.00325854
-0.000232003
-0.000238945
-0.000215142
-0.000109587
-0.000188617
-0.000488997
-0.000618448
-0.000503065
-0.000478379
-0.000724464
-0.00109571
-0.00140493
-0.0015836
-0.00161137
-0.00152831
-0.00145953
-0.00160896
-0.00207696
-0.00271194
-0.0031951
-0.000255597
-0.000259663
-0.000253905
-0.00019184
-0.000243545
-0.000489264
-0.000662441
-0.000641125
-0.000629162
-0.00078947
-0.00108282
-0.00139855
-0.0016485
-0.00174894
-0.00166581
-0.00151355
-0.00150768
-0.00183016
-0.00243188
-0.00302664
-0.000281555
-0.000285355
-0.000290359
-0.000265974
-0.000311802
-0.000508806
-0.000693735
-0.000745049
-0.000774915
-0.000886906
-0.00109708
-0.00137317
-0.0016557
-0.00183686
-0.00181097
-0.00162936
-0.00150345
-0.00165648
-0.00214733
-0.00277648
-0.00030934
-0.000315612
-0.000327382
-0.000331482
-0.000386089
-0.000546949
-0.000723297
-0.000821871
-0.000898203
-0.00100077
-0.00114494
-0.00135593
-0.00162837
-0.00186505
-0.00192727
-0.00177845
-0.00158365
-0.00158289
-0.00191294
-0.00248516
-0.000338691
-0.000349435
-0.00036703
-0.000390194
-0.000459781
-0.000599598
-0.000758939
-0.000881166
-0.000993571
-0.00111217
-0.00122146
-0.0013639
-0.00159095
-0.00184769
-0.00199139
-0.00192234
-0.00171945
-0.0016067
-0.00176608
-0.00220976
-0.00036959
-0.000385747
-0.000410026
-0.000444911
-0.000528508
-0.000660749
-0.000804051
-0.000931442
-0.00106557
-0.00120612
-0.00131038
-0.00140322
-0.0015671
-0.00180674
-0.00200248
-0.0020268
-0.00187238
-0.00170206
-0.00171709
-0.00200136
-0.000402178
-0.00042355
-0.000455756
-0.000498144
-0.000590997
-0.000724402
-0.000857937
-0.000980157
-0.0011217
-0.00127845
-0.00139544
-0.00146658
-0.00157099
-0.00176493
-0.00197711
-0.0020776
-0.00200244
-0.00183431
-0.00175234
-0.001886
-0.000436536
-0.00046213
-0.000502989
-0.000551469
-0.000648334
-0.000785818
-0.000916818
-0.00103186
-0.00116889
-0.00133235
-0.00146597
-0.00153822
-0.00160363
-0.00174141
-0.00193638
-0.00208111
-0.00208572
-0.00196355
-0.00184117
-0.00186182
-0.000472533
-0.000501143
-0.000550387
-0.000605324
-0.000702339
-0.000842415
-0.000976061
-0.0010872
-0.00121341
-0.00137371
-0.00151957
-0.00160505
-0.00165488
-0.00174401
-0.00190009
-0.00205619
-0.00211988
-0.00206133
-0.00194862
-0.00190507
-0.000509814
-0.000540457
-0.000596777
-0.000659042
-0.000754558
-0.000893837
-0.00103207
-0.00114402
-0.00125929
-0.00140841
-0.00155884
-0.00165976
-0.00171104
-0.00176913
-0.0018813
-0.00202267
-0.00211818
-0.0021182
-0.00204438
-0.00198305
-0.000547832
-0.000579871
-0.000641405
-0.000711407
-0.000805754
-0.000941182
-0.00108286
-0.00119908
-0.0013071
-0.00144138
-0.00158844
-0.00170111
-0.00176239
-0.00180696
-0.00188303
-0.00199627
-0.00209953
-0.0021408
-0.00211363
-0.00206714
-0.000585886
-0.000619009
-0.00068392
-0.000761187
-0.000855744
-0.000985669
-0.00112797
-0.00124959
-0.00135511
-0.00147554
-0.00161306
-0.00173142
-0.00180444
-0.00184765
-0.00190068
-0.00198472
-0.00207943
-0.00214331
-0.00215604
-0.00213906
-0.000623181
-0.000657321
-0.000724128
-0.000807374
-0.00090358
-0.00102792
-0.00116799
-0.00129412
-0.00140087
-0.00151118
-0.00163638
-0.00175404
-0.00183653
-0.00188482
-0.00192691
-0.00198829
-0.00206753
-0.00213891
-0.0021794
-0.00219285
-0.000658891
-0.000694083
-0.00076177
-0.00084926
-0.000948007
-0.00106788
-0.00120392
-0.00133254
-0.00144232
-0.00154683
-0.00166015
-0.00177216
-0.0018599
-0.00191549
-0.00195536
-0.00200281
-0.00206684
-0.00213613
-0.00219249
-0.0022304
-0.000692157
-0.000728433
-0.000796453
-0.000886456
-0.000987895
-0.00110486
-0.00123632
-0.00136526
-0.0014782
-0.00158047
-0.00168454
-0.00178863
-0.00187712
-0.00193917
-0.00198174
-0.0020228
-0.00207539
-0.00213838
-0.00220097
-0.00225526
-0.000722067
-0.000759403
-0.000827594
-0.0009188
-0.00102246
-0.00113786
-0.00126507
-0.00139272
-0.00150793
-0.00161023
-0.00170841
-0.00180504
-0.00189132
-0.00195733
-0.00200408
-0.00204355
-0.00208884
-0.00214493
-0.00220783
-0.0022712
-0.000747632
-0.000785956
-0.000854325
-0.000945918
-0.00105122
-0.00116608
-0.00128983
-0.00141524
-0.0015315
-0.00163467
-0.00172971
-0.00182073
-0.00190409
-0.00197229
-0.00202318
-0.00206334
-0.00210389
-0.00215322
-0.00221288
-0.00227971
-0.000767718
-0.000806994
-0.000875612
-0.000967295
-0.00107384
-0.00118893
-0.00131035
-0.00143332
-0.00154942
-0.00165322
-0.00174657
-0.00183371
-0.0019145
-0.00198424
-0.00203947
-0.00208286
-0.00212198
-0.00216491
-0.00221695
-0.00228001
-0.000780769
-0.000821249
-0.000890514
-0.000982621
-0.0010903
-0.00120632
-0.00132704
-0.00144861
-0.00156418
-0.00166804
-0.00176016
-0.0018442
-0.00192182
-0.00199075
-0.00204832
-0.002096
-0.00213963
-0.00218613
-0.00224023
-0.00230374
0.0122758
0.00686968
-0.000909342
-0.00647598
-0.00799673
-0.0072559
-0.00625588
-0.005643
-0.00537342
-0.00528387
-0.00526721
-0.00527717
-0.00529784
-0.00532155
-0.00534202
-0.00535608
-0.00536514
-0.00537253
-0.0053802
-0.00538949
-0.00540402
-0.00542921
-0.0054672
-0.0055137
-0.00556073
-0.00560234
-0.00563787
-0.00567049
-0.00570407
-0.00574097
-0.00578094
-0.00582174
-0.00586103
-0.00589875
-0.00593749
-0.00598007
-0.00602683
-0.0060752
-0.0061224
-0.00616812
-0.00621464
-0.00626388
-0.0063149
-0.00636488
-0.00641225
-0.00645806
-0.00650436
-0.00655132
-0.00659677
-0.0066387
-0.00667731
-0.00671405
-0.00674933
-0.00678173
-0.00680993
-0.00683452
-0.00685709
-0.00687828
-0.00689753
-0.00691454
-0.00693014
-0.00694515
-0.00695956
-0.00697307
-0.00698595
-0.0069987
-0.00701137
-0.00702358
-0.00703507
-0.00704588
-0.0070562
-0.0070662
-0.00707599
-0.00708556
-0.00709482
-0.00710377
-0.00711268
-0.00712187
-0.00713144
-0.00714122
-0.00715116
-0.00716147
-0.00717237
-0.00718385
-0.0071958
-0.00720823
-0.00722123
-0.00723486
-0.00724905
-0.00726375
-0.00727896
-0.00729468
-0.00731089
-0.00732759
-0.00734474
-0.00736235
-0.00738039
-0.00739886
-0.00741771
-0.00743695
-0.00745659
-0.0074766
-0.00749697
-0.00751769
-0.00753875
-0.00756016
-0.00758189
-0.00760395
-0.00762632
-0.00764902
-0.00767205
-0.00769539
-0.00771903
-0.007743
-0.00776726
-0.00779185
-0.00781675
-0.00784197
-0.00786749
-0.00789333
-0.00791948
-0.00794594
-0.0079727
-0.00799977
-0.00802712
-0.00805478
-0.00808273
-0.00811098
-0.00813951
-0.00816831
-0.0081974
-0.00822678
-0.00825644
-0.0082864
-0.00831662
-0.00834715
-0.00837793
-0.00840905
-0.00844038
-0.00847211
-0.008504
-0.00853634
-0.00856878
-0.00860177
-0.00863475
-0.00866841
-0.00870192
-0.00873629
-0.00877032
-0.0088054
-0.00883997
-0.00887575
-0.00891093
-0.00894735
-0.00898323
-0.00902017
-0.00905693
-0.00909424
-0.00913205
-0.00916959
-0.00920859
-0.00924631
-0.00928644
-0.00932456
-0.00936551
-0.00940448
-0.00944574
-0.00948612
-0.00952723
-0.00956931
-0.00961028
-0.00965376
-0.00969527
-0.00973921
-0.00978228
-0.00982589
-0.0098709
-0.00991447
-0.00996043
-0.0100055
-0.0100508
-0.0100985
-0.010143
-0.0101921
-0.0102384
-0.0102856
-0.0103361
-0.0103812
-0.0104331
-0.0104809
-0.0105285
-0.010582
-0.0106262
-0.0106779
-0.0107276
-0.0107704
-0.0108216
-0.0108663
-0.0109035
-0.0109477
0.0115525
0.00669713
-0.000828675
-0.00634174
-0.00791779
-0.00721861
-0.00623252
-0.00562639
-0.00536123
-0.0052744
-0.00525941
-0.00527049
-0.00529199
-0.00531635
-0.00533736
-0.00535187
-0.00536133
-0.00536908
-0.00537709
-0.00538665
-0.00540142
-0.0054268
-0.00546495
-0.00551161
-0.00555878
-0.00560053
-0.00563618
-0.0056689
-0.00570258
-0.00573955
-0.00577961
-0.00582048
-0.00585984
-0.00589763
-0.00593642
-0.00597906
-0.00602586
-0.00607429
-0.00612154
-0.00616731
-0.00621386
-0.00626315
-0.00631422
-0.00636423
-0.00641164
-0.0064575
-0.00650383
-0.00655082
-0.00659631
-0.00663828
-0.00667692
-0.00671369
-0.00674899
-0.00678143
-0.00680966
-0.00683426
-0.00685685
-0.00687807
-0.00689733
-0.00691437
-0.00692998
-0.006945
-0.00695943
-0.00697295
-0.00698584
-0.0069986
-0.00701128
-0.0070235
-0.007035
-0.00704582
-0.00705615
-0.00706615
-0.00707594
-0.00708552
-0.00709479
-0.00710374
-0.00711265
-0.00712185
-0.00713142
-0.0071412
-0.00715115
-0.00716146
-0.00717236
-0.00718383
-0.00719579
-0.00720822
-0.00722122
-0.00723485
-0.00724905
-0.00726374
-0.00727896
-0.00729468
-0.00731089
-0.00732758
-0.00734474
-0.00736235
-0.00738039
-0.00739885
-0.00741771
-0.00743695
-0.00745659
-0.0074766
-0.00749697
-0.00751769
-0.00753875
-0.00756016
-0.00758189
-0.00760395
-0.00762632
-0.00764902
-0.00767205
-0.00769539
-0.00771903
-0.007743
-0.00776726
-0.00779185
-0.00781675
-0.00784197
-0.00786749
-0.00789333
-0.00791948
-0.00794594
-0.0079727
-0.00799977
-0.00802712
-0.00805478
-0.00808273
-0.00811098
-0.00813951
-0.00816831
-0.0081974
-0.00822678
-0.00825644
-0.0082864
-0.00831662
-0.00834715
-0.00837793
-0.00840905
-0.00844038
-0.00847211
-0.008504
-0.00853634
-0.00856878
-0.00860177
-0.00863475
-0.00866841
-0.00870192
-0.00873629
-0.00877032
-0.0088054
-0.00883997
-0.00887575
-0.00891093
-0.00894735
-0.00898323
-0.00902017
-0.00905693
-0.00909424
-0.00913205
-0.00916959
-0.00920859
-0.00924631
-0.00928644
-0.00932456
-0.00936551
-0.00940448
-0.00944574
-0.00948612
-0.00952723
-0.00956931
-0.00961028
-0.00965376
-0.00969527
-0.00973921
-0.00978228
-0.00982589
-0.0098709
-0.00991447
-0.00996043
-0.0100055
-0.0100508
-0.0100985
-0.010143
-0.0101921
-0.0102384
-0.0102856
-0.0103361
-0.0103812
-0.0104331
-0.0104809
-0.0105285
-0.010582
-0.0106262
-0.0106779
-0.0107276
-0.0107704
-0.0108216
-0.0108663
-0.0109035
-0.0109477
0.0107937
0.00652683
-0.000652547
-0.00608799
-0.00777456
-0.00716259
-0.00620304
-0.00560423
-0.00534392
-0.00526102
-0.0052489
-0.005262
-0.00528493
-0.00531033
-0.00533209
-0.00534717
-0.00535707
-0.00536521
-0.00537359
-0.00538351
-0.0053986
-0.00542425
-0.00546262
-0.00550945
-0.00555676
-0.00559864
-0.00563442
-0.00566726
-0.00570105
-0.00573812
-0.00577826
-0.0058192
-0.00585863
-0.00589649
-0.00593534
-0.00597803
-0.00602489
-0.00607337
-0.00612067
-0.00616648
-0.00621308
-0.00626241
-0.00631351
-0.00636358
-0.00641102
-0.00645691
-0.00650329
-0.00655031
-0.00659584
-0.00663784
-0.00667651
-0.00671331
-0.00674864
-0.00678111
-0.00680937
-0.00683399
-0.00685661
-0.00687784
-0.00689713
-0.00691418
-0.00692981
-0.00694485
-0.00695929
-0.00697283
-0.00698572
-0.0069985
-0.00701119
-0.00702342
-0.00703493
-0.00704575
-0.00705609
-0.0070661
-0.00707589
-0.00708548
-0.00709475
-0.00710371
-0.00711262
-0.00712182
-0.00713139
-0.00714118
-0.00715113
-0.00716144
-0.00717234
-0.00718382
-0.00719578
-0.00720821
-0.00722121
-0.00723484
-0.00724904
-0.00726374
-0.00727895
-0.00729467
-0.00731089
-0.00732758
-0.00734474
-0.00736235
-0.00738039
-0.00739885
-0.00741771
-0.00743695
-0.00745659
-0.0074766
-0.00749697
-0.00751769
-0.00753875
-0.00756016
-0.00758189
-0.00760395
-0.00762632
-0.00764902
-0.00767205
-0.00769539
-0.00771903
-0.007743
-0.00776726
-0.00779185
-0.00781675
-0.00784197
-0.00786749
-0.00789333
-0.00791948
-0.00794594
-0.0079727
-0.00799977
-0.00802712
-0.00805478
-0.00808273
-0.00811098
-0.00813951
-0.00816831
-0.0081974
-0.00822678
-0.00825644
-0.0082864
-0.00831662
-0.00834715
-0.00837793
-0.00840905
-0.00844038
-0.00847211
-0.008504
-0.00853634
-0.00856878
-0.00860177
-0.00863475
-0.00866841
-0.00870192
-0.00873629
-0.00877032
-0.0088054
-0.00883997
-0.00887575
-0.00891093
-0.00894735
-0.00898323
-0.00902017
-0.00905693
-0.00909424
-0.00913205
-0.00916959
-0.00920859
-0.00924631
-0.00928644
-0.00932456
-0.00936551
-0.00940448
-0.00944574
-0.00948612
-0.00952723
-0.00956932
-0.00961028
-0.00965376
-0.00969527
-0.00973921
-0.00978228
-0.00982589
-0.0098709
-0.00991447
-0.00996043
-0.0100055
-0.0100508
-0.0100985
-0.010143
-0.0101921
-0.0102384
-0.0102856
-0.0103361
-0.0103812
-0.0104331
-0.0104809
-0.0105285
-0.010582
-0.0106262
-0.0106779
-0.0107276
-0.0107704
-0.0108216
-0.0108663
-0.0109035
-0.0109477
0.010075
0.00637867
-0.000408259
-0.00575281
-0.00757546
-0.00708331
-0.00616177
-0.00557182
-0.00531783
-0.0052411
-0.00523381
-0.00525031
-0.00527555
-0.00530252
-0.00532537
-0.00534121
-0.00535167
-0.00536025
-0.00536906
-0.00537946
-0.00539507
-0.0054212
-0.00545992
-0.00550695
-0.0055544
-0.0055964
-0.00563233
-0.00566536
-0.00569932
-0.00573652
-0.00577675
-0.00581777
-0.00585727
-0.00589521
-0.00593414
-0.0059769
-0.00602381
-0.00607234
-0.00611968
-0.00616555
-0.0062122
-0.00626157
-0.00631272
-0.00636282
-0.0064103
-0.00645623
-0.00650265
-0.00654972
-0.00659528
-0.00663732
-0.00667602
-0.00671285
-0.00674822
-0.00678072
-0.006809
-0.00683366
-0.0068563
-0.00687757
-0.00689688
-0.00691395
-0.00692959
-0.00694465
-0.00695911
-0.00697267
-0.00698558
-0.00699837
-0.00701107
-0.00702331
-0.00703483
-0.00704567
-0.00705601
-0.00706603
-0.00707583
-0.00708542
-0.0070947
-0.00710366
-0.00711258
-0.00712178
-0.00713136
-0.00714115
-0.0071511
-0.00716142
-0.00717232
-0.0071838
-0.00719576
-0.0072082
-0.0072212
-0.00723483
-0.00724903
-0.00726373
-0.00727894
-0.00729467
-0.00731088
-0.00732758
-0.00734473
-0.00736235
-0.00738039
-0.00739885
-0.0074177
-0.00743695
-0.00745659
-0.0074766
-0.00749697
-0.00751769
-0.00753875
-0.00756016
-0.00758189
-0.00760395
-0.00762632
-0.00764902
-0.00767205
-0.00769539
-0.00771903
-0.007743
-0.00776726
-0.00779185
-0.00781675
-0.00784197
-0.00786749
-0.00789333
-0.00791948
-0.00794594
-0.0079727
-0.00799977
-0.00802712
-0.00805478
-0.00808273
-0.00811098
-0.00813951
-0.00816831
-0.0081974
-0.00822678
-0.00825644
-0.0082864
-0.00831662
-0.00834715
-0.00837793
-0.00840905
-0.00844038
-0.00847211
-0.008504
-0.00853635
-0.00856878
-0.00860177
-0.00863475
-0.00866841
-0.00870192
-0.00873629
-0.00877032
-0.0088054
-0.00883997
-0.00887575
-0.00891093
-0.00894735
-0.00898323
-0.00902017
-0.00905693
-0.00909424
-0.00913205
-0.00916959
-0.00920859
-0.00924631
-0.00928644
-0.00932456
-0.00936551
-0.00940448
-0.00944574
-0.00948612
-0.00952723
-0.00956932
-0.00961028
-0.00965376
-0.00969527
-0.00973921
-0.00978228
-0.00982589
-0.0098709
-0.00991447
-0.00996043
-0.0100055
-0.0100508
-0.0100985
-0.010143
-0.0101921
-0.0102384
-0.0102856
-0.0103361
-0.0103812
-0.0104331
-0.0104809
-0.0105285
-0.010582
-0.0106262
-0.0106779
-0.0107276
-0.0107704
-0.0108216
-0.0108663
-0.0109035
-0.0109477
0.00938755
0.00622192
-0.000145605
-0.00538899
-0.0073525
-0.00699387
-0.00611511
-0.0055322
-0.0052837
-0.00521414
-0.00521314
-0.00523425
-0.00526269
-0.00529187
-0.00531624
-0.00533315
-0.00534435
-0.00535345
-0.00536276
-0.00537382
-0.00539022
-0.00541711
-0.00545639
-0.00550371
-0.00555128
-0.00559339
-0.00562952
-0.00566282
-0.00569707
-0.00573449
-0.00577483
-0.00581592
-0.00585551
-0.00589357
-0.00593264
-0.00597549
-0.00602246
-0.00607102
-0.00611842
-0.00616436
-0.00621107
-0.00626049
-0.00631166
-0.00636179
-0.00640932
-0.00645531
-0.00650178
-0.00654889
-0.00659449
-0.00663657
-0.00667532
-0.0067122
-0.00674761
-0.00678014
-0.00680847
-0.00683317
-0.00685585
-0.00687715
-0.00689649