/*--------------------------------*- C++ -*----------------------------------*\
| =========                 |                                                 |
| \\      /  F ield         | OpenFOAM: The Open Source CFD Toolbox           |
|  \\    /   O peration     | Version:  v2012                                 |
|   \\  /    A nd           | Website:  www.openfoam.com                      |
|    \\/     M anipulation  |                                                 |
\*---------------------------------------------------------------------------*/
FoamFile
{
    version     2.0;
    format      ascii;
    class       volVectorField;
    location    "0.4";
    object      U;
}
// * * * * * * * * * * * * * * * * * * * * * * * * * * * * * * * * * * * * * //

dimensions      [0 1 -1 0 0 0 0];


internalField   nonuniform List<vector> 
17600
(
(0.819924 -0.000416789 0)
(1.16948 0.000403875 0)
(0.827994 -0.000807651 0)
(1.1672 0.000831584 0)
(0.857894 0.00153395 0)
(1.15587 0.00226307 0)
(0.861831 0.00157488 0)
(1.13584 0.00117253 0)
(0.859545 0.000892622 0)
(1.11945 0.000549442 0)
(0.858176 0.00102106 0)
(1.10717 0.000446088 0)
(0.856511 0.00128897 0)
(1.09796 0.000325279 0)
(0.852831 0.00156549 0)
(1.09217 0.000242622 0)
(0.846055 0.00209996 0)
(1.08932 0.000236494 0)
(0.833208 0.00316966 0)
(1.08701 0.000545388 0)
(0.830507 -0.000443191 0)
(1.15848 0.000540299 0)
(0.840206 -0.000989679 0)
(1.15512 0.000779818 0)
(0.871444 0.00141075 0)
(1.14198 0.00240669 0)
(0.879492 0.00155909 0)
(1.11885 0.00142124 0)
(0.881485 0.000866574 0)
(1.09818 0.000814502 0)
(0.885505 0.000964493 0)
(1.07968 0.000733202 0)
(0.892031 0.00122727 0)
(1.06095 0.000645078 0)
(0.901149 0.00156415 0)
(1.03999 0.000539333 0)
(0.914628 0.00240601 0)
(1.01285 0.00021425 0)
(0.933368 0.0045618 0)
(0.9723 -0.000194387 0)
(0.851222 -0.000452595 0)
(1.13663 0.000646177 0)
(0.863757 -0.00116129 0)
(1.1307 0.000703926 0)
(0.896971 0.00133347 0)
(1.11527 0.00252653 0)
(0.9105 0.00162668 0)
(1.08894 0.0016028 0)
(0.917274 0.000955715 0)
(1.06402 0.000947807 0)
(0.925774 0.00108592 0)
(1.04112 0.000789775 0)
(0.936542 0.00143763 0)
(1.019 0.000587234 0)
(0.947988 0.00190483 0)
(0.99797 0.000333436 0)
(0.958686 0.00287414 0)
(0.978678 -2.31371e-05 0)
(0.964788 0.00501687 0)
(0.96205 0.00068846 0)
(0.879476 -0.000434546 0)
(1.10692 0.000684637 0)
(0.894263 -0.00125091 0)
(1.09784 0.000575112 0)
(0.927518 0.00134103 0)
(1.08201 0.00252083 0)
(0.944194 0.00178837 0)
(1.05607 0.00163842 0)
(0.952028 0.00117326 0)
(1.03165 0.000926226 0)
(0.959152 0.00134501 0)
(1.0114 0.000695379 0)
(0.966114 0.00174858 0)
(0.995158 0.000437088 0)
(0.970907 0.00224674 0)
(0.983218 0.000174239 0)
(0.97264 0.00320263 0)
(0.974979 -3.7585e-05 0)
(0.969865 0.00524048 0)
(0.968177 0.00169654 0)
(0.910762 -0.000388219 0)
(1.07489 0.000673565 0)
(0.925422 -0.00126514 0)
(1.06355 0.000396849 0)
(0.954944 0.00139021 0)
(1.05051 0.00242566 0)
(0.970905 0.0019856 0)
(1.02974 0.00161515 0)
(0.975993 0.00142408 0)
(1.01048 0.000888859 0)
(0.978201 0.0015925 0)
(0.996562 0.000640584 0)
(0.979488 0.00197857 0)
(0.987305 0.000394357 0)
(0.979012 0.00244914 0)
(0.981392 0.000170997 0)
(0.977016 0.00338312 0)
(0.976868 9.93041e-05 0)
(0.972884 0.00540701 0)
(0.971257 0.00265994 0)
(0.940071 -0.000320671 0)
(1.0465 0.000634894 0)
(0.95186 -0.00122564 0)
(1.03474 0.000213203 0)
(0.974296 0.00144054 0)
(1.0267 0.00230636 0)
(0.987021 0.00215374 0)
(1.01357 0.00160144 0)
(0.988551 0.00163555 0)
(1.00057 0.000899659 0)
(0.986613 0.00177595 0)
(0.991881 0.000651816 0)
(0.984707 0.00212738 0)
(0.986576 0.000413844 0)
(0.982527 0.00257556 0)
(0.982937 0.000213974 0)
(0.980046 0.00349579 0)
(0.9793 0.000286534 0)
(0.976148 0.0055227 0)
(0.97415 0.0035418 0)
(0.963667 -0.000248201 0)
(1.0256 0.000591879 0)
(0.971083 -0.00115478 0)
(1.01505 6.79426e-05 0)
(0.985229 0.00146868 0)
(1.0119 0.00219743 0)
(0.994444 0.00225995 0)
(1.00574 0.00160768 0)
(0.993935 0.00179223 0)
(0.99752 0.000944605 0)
(0.990249 0.00191077 0)
(0.991797 0.000687381 0)
(0.987553 0.00223476 0)
(0.988241 0.00044203 0)
(0.985385 0.00266627 0)
(0.985514 0.000268111 0)
(0.983183 0.00355918 0)
(0.982344 0.000537815 0)
(0.979589 0.00555547 0)
(0.977699 0.0043898 0)
(0.980107 -0.0001877 0)
(1.0128 0.000560928 0)
(0.983442 -0.00107162 0)
(1.00425 -2.11038e-05 0)
(0.990371 0.00147121 0)
(1.00415 0.00210444 0)
(0.997036 0.00230693 0)
(1.00268 0.00161763 0)
(0.996258 0.00190576 0)
(0.997499 0.000995029 0)
(0.992592 0.0020173 0)
(0.993381 0.00072152 0)
(0.990189 0.00231903 0)
(0.99074 0.000466767 0)
(0.988451 0.0027306 0)
(0.988591 0.000338434 0)
(0.986607 0.00357346 0)
(0.985818 0.000854199 0)
(0.983339 0.00551652 0)
(0.981633 0.00520105 0)
(0.990077 -0.000147879 0)
(1.00619 0.000544462 0)
(0.990769 -0.000989244 0)
(0.999697 -6.04872e-05 0)
(0.992774 0.00146013 0)
(1.00067 0.0020229 0)
(0.997843 0.00231431 0)
(1.0017 0.00161664 0)
(0.997696 0.0019892 0)
(0.998454 0.00103444 0)
(0.9948 0.00210505 0)
(0.995434 0.000746957 0)
(0.992969 0.0023859 0)
(0.993448 0.00048968 0)
(0.991654 0.00276892 0)
(0.991758 0.000432431 0)
(0.990121 0.00353876 0)
(0.989346 0.00122147 0)
(0.987182 0.00543129 0)
(0.985625 0.00594915 0)
(0.995403 -0.000127601 0)
(1.0032 0.000535096 0)
(0.994982 -0.000913846 0)
(0.998498 -6.77009e-05 0)
(0.994367 0.00144956 0)
(0.999352 0.00194923 0)
(0.99834 0.00230173 0)
(1.00142 0.00160021 0)
(0.998917 0.00205068 0)
(0.999523 0.00105806 0)
(0.996921 0.00217593 0)
(0.997415 0.000764315 0)
(0.995642 0.00243498 0)
(0.995965 0.000517117 0)
(0.994647 0.00277518 0)
(0.994646 0.000555696 0)
(0.993348 0.00345996 0)
(0.992561 0.00162537 0)
(0.990716 0.00532692 0)
(0.989314 0.00660467 0)
(0.997976 -0.000120119 0)
(1.00185 0.000524731 0)
(0.997411 -0.000846976 0)
(0.998623 -6.02204e-05 0)
(0.995825 0.00144652 0)
(0.99903 0.00188244 0)
(0.998907 0.00228258 0)
(1.00134 0.00157122 0)
(0.999952 0.00209522 0)
(1.00039 0.00106721 0)
(0.99872 0.00222951 0)
(0.999047 0.000776832 0)
(0.997888 0.00246337 0)
(0.99803 0.000556581 0)
(0.997109 0.00274428 0)
(0.996995 0.0007105 0)
(0.995973 0.00334434 0)
(0.995187 0.00204918 0)
(0.993626 0.00523256 0)
(0.992393 0.00714467 0)
(0.99916 -0.000118499 0)
(1.00111 0.000509457 0)
(0.998804 -0.000788062 0)
(0.999053 -5.03171e-05 0)
(0.997142 0.00145111 0)
(0.999116 0.00182225 0)
(0.999488 0.00226414 0)
(1.00132 0.00153489 0)
(1.00072 0.00212697 0)
(1.00099 0.0010652 0)
(1.00004 0.00226663 0)
(1.00023 0.000788384 0)
(0.999536 0.00246823 0)
(0.999538 0.000614443 0)
(0.998895 0.00267616 0)
(0.998704 0.000895236 0)
(0.997877 0.00320466 0)
(0.997114 0.00247099 0)
(0.99579 0.00517576 0)
(0.994729 0.00755764 0)
(0.999713 -0.000118412 0)
(1.00063 0.000489256 0)
(0.999569 -0.0007355 0)
(0.999426 -4.41959e-05 0)
(0.998181 0.00146041 0)
(0.999334 0.00176776 0)
(0.999971 0.0022491 0)
(1.00131 0.00149593 0)
(1.00121 0.00214924 0)
(1.00135 0.0010571 0)
(1.00088 0.0022875 0)
(1.001 0.000804791 0)
(1.0006 0.00244734 0)
(1.00052 0.000694117 0)
(1.00005 0.00257549 0)
(0.999822 0.001104 0)
(0.999122 0.00306052 0)
(0.9984 0.00286633 0)
(0.997269 0.00517664 0)
(0.996368 0.00784968 0)
(0.999985 -0.000118183 0)
(1.0003 0.000465865 0)
(0.999956 -0.000687238 0)
(0.999681 -4.36168e-05 0)
(0.998897 0.00147158 0)
(0.999556 0.00171726 0)
(1.00031 0.00223762 0)
(1.00132 0.00145729 0)
(1.00148 0.00216414 0)
(1.00154 0.00104881 0)
(1.00135 0.00229133 0)
(1.00144 0.000832114 0)
(1.00121 0.00240008 0)
(1.00111 0.000795296 0)
(1.00072 0.00245049 0)
(1.00048 0.00132524 0)
(0.999873 0.00293419 0)
(0.999196 0.00321334 0)
(0.998229 0.00524108 0)
(0.997466 0.00804307 0)
(1.00012 -0.000117717 0)
(1.00009 0.000441371 0)
(1.00013 -0.000641435 0)
(0.999848 -4.79334e-05 0)
(0.999343 0.00148265 0)
(0.999735 0.0016695 0)
(1.00052 0.00222811 0)
(1.00133 0.00142141 0)
(1.00161 0.00217184 0)
(1.00164 0.00104563 0)
(1.00158 0.00227737 0)
(1.00168 0.000874651 0)
(1.00152 0.00232757 0)
(1.00141 0.000914993 0)
(1.00107 0.00231326 0)
(1.00085 0.00154401 0)
(1.00031 0.0028444 0)
(0.999679 0.00350097 0)
(0.998851 0.00535992 0)
(0.998209 0.00816625 0)
(1.00019 -0.000117282 0)
(0.99998 0.000416684 0)
(1.0002 -0.000597109 0)
(0.999962 -5.58012e-05 0)
(0.999606 0.00149236 0)
(0.999864 0.00162402 0)
(1.00063 0.00221806 0)
(1.00134 0.00139101 0)
(1.00166 0.00217053 0)
(1.00168 0.00105191 0)
(1.00168 0.00224493 0)
(1.00179 0.000934213 0)
(1.00166 0.00223303 0)
(1.00156 0.0010483 0)
(1.00126 0.00217705 0)
(1.00104 0.00174689 0)
(1.00057 0.00279939 0)
(0.999988 0.00373351 0)
(0.999281 0.00551399 0)
(0.998744 0.00824523 0)
(1.00023 -0.000117333 0)
(0.999921 0.00039275 0)
(1.00023 -0.000553816 0)
(1.00004 -6.56564e-05 0)
(0.999761 0.00149956 0)
(0.999951 0.00158114 0)
(1.00069 0.00220487 0)
(1.00135 0.00136792 0)
(1.00166 0.00215861 0)
(1.0017 0.00107061 0)
(1.00171 0.00219352 0)
(1.00183 0.0010102 0)
(1.00172 0.0021226 0)
(1.00163 0.00118673 0)
(1.00136 0.00205437 0)
(1.00114 0.00192421 0)
(1.00073 0.00279935 0)
(1.00021 0.00392236 0)
(0.999613 0.00568033 0)
(0.999171 0.00829846 0)
(1.00025 -0.000118651 0)
(0.999891 0.000371511 0)
(1.00023 -0.000511505 0)
(1.00011 -7.56222e-05 0)
(0.999856 0.00150277 0)
(1.00001 0.00154251 0)
(1.00071 0.00218572 0)
(1.00135 0.00135372 0)
(1.00165 0.00213452 0)
(1.00169 0.00110368 0)
(1.00171 0.00212397 0)
(1.00184 0.00109938 0)
(1.00175 0.00200619 0)
(1.00165 0.00131857 0)
(1.00141 0.00195608 0)
(1.00121 0.00207034 0)
(1.00086 0.00284251 0)
(1.0004 0.00407831 0)
(0.9999 0.00583985 0)
(0.999541 0.00833412 0)
(1.00026 -0.000121503 0)
(0.999877 0.000353794 0)
(1.00023 -0.000471412 0)
(1.00016 -8.42891e-05 0)
(0.99992 0.00150027 0)
(1.00004 0.00150998 0)
(1.00071 0.00215829 0)
(1.00134 0.00135068 0)
(1.00163 0.0020957 0)
(1.00168 0.00115225 0)
(1.0017 0.00203978 0)
(1.00184 0.00119541 0)
(1.00175 0.00189453 0)
(1.00165 0.00143404 0)
(1.00144 0.00188669 0)
(1.00126 0.00218565 0)
(1.00097 0.0029229 0)
(1.00058 0.00421351 0)
(1.00017 0.00598102 0)
(0.999883 0.00835359 0)
(1.00027 -0.000126026 0)
(0.999871 0.000339753 0)
(1.00024 -0.000435213 0)
(1.00021 -8.9495e-05 0)
(0.999967 0.00148971 0)
(1.00006 0.00148549 0)
(1.00071 0.00212051 0)
(1.00133 0.00136062 0)
(1.00161 0.00204143 0)
(1.00166 0.00121451 0)
(1.00168 0.00194761 0)
(1.00182 0.00128936 0)
(1.00175 0.00179548 0)
(1.00164 0.00152905 0)
(1.00147 0.00184488 0)
(1.00131 0.00227466 0)
(1.00108 0.00302808 0)
(1.00076 0.00434066 0)
(1.00043 0.00609995 0)
(1.00021 0.00835785 0)
(1.00028 -0.000132971 0)
(0.99987 0.00033171 0)
(1.00024 -0.000404204 0)
(1.00026 -8.8859e-05 0)
(1.00001 0.00146895 0)
(1.00008 0.00147064 0)
(1.0007 0.00207041 0)
(1.00131 0.00138359 0)
(1.00158 0.0019746 0)
(1.00164 0.0012846 0)
(1.00166 0.00185626 0)
(1.00179 0.00137339 0)
(1.00174 0.00171401 0)
(1.00163 0.00160344 0)
(1.00149 0.00182873 0)
(1.00136 0.00234297 0)
(1.00118 0.00314309 0)
(1.00094 0.00446734 0)
(1.00068 0.00620039 0)
(1.00052 0.00834942 0)
(1.00029 -0.000142221 0)
(0.999869 0.000330411 0)
(1.00024 -0.000380741 0)
(1.0003 -8.09736e-05 0)
(1.00004 0.00143661 0)
(1.00009 0.00146641 0)
(1.00068 0.00200764 0)
(1.00129 0.00141805 0)
(1.00156 0.00189976 0)
(1.00161 0.00135528 0)
(1.00164 0.00177357 0)
(1.00176 0.00144274 0)
(1.00172 0.0016533 0)
(1.00162 0.00165871 0)
(1.00151 0.00183737 0)
(1.00141 0.00239709 0)
(1.0013 0.00325565 0)
(1.00112 0.00459319 0)
(1.00094 0.00628919 0)
(1.00083 0.0083308 0)
(1.00029 -0.000154117 0)
(0.999869 0.00033631 0)
(1.00024 -0.000366126 0)
(1.00035 -6.38958e-05 0)
(1.00008 0.00139224 0)
(1.0001 0.00147316 0)
(1.00067 0.0019339 0)
(1.00127 0.00146147 0)
(1.00153 0.00182259 0)
(1.00159 0.00141931 0)
(1.00162 0.0017053 0)
(1.00174 0.0014935 0)
(1.00171 0.00161394 0)
(1.0016 0.00169967 0)
(1.00152 0.00187091 0)
(1.00148 0.00244705 0)
(1.00142 0.00336041 0)
(1.00131 0.00471455 0)
(1.00119 0.006373 0)
(1.00113 0.00830636 0)
(1.0003 -0.000169291 0)
(0.999869 0.000352198 0)
(1.00024 -0.000362183 0)
(1.00039 -3.67924e-05 0)
(1.00011 0.00133546 0)
(1.00011 0.00149037 0)
(1.00065 0.00185169 0)
(1.00125 0.00150884 0)
(1.00151 0.00175136 0)
(1.00156 0.00146819 0)
(1.00159 0.00165554 0)
(1.00171 0.00152323 0)
(1.00169 0.00159059 0)
(1.00159 0.00173208 0)
(1.00154 0.00192712 0)
(1.00155 0.00250517 0)
(1.00155 0.00345673 0)
(1.0015 0.00482739 0)
(1.00144 0.00645414 0)
(1.00142 0.00828225 0)
(1.00031 -0.000187453 0)
(0.999869 0.000379592 0)
(1.00024 -0.000371842 0)
(1.00043 -5.99964e-07 0)
(1.00015 0.00126703 0)
(1.00012 0.00151592 0)
(1.00064 0.00176586 0)
(1.00123 0.00155109 0)
(1.00148 0.00169747 0)
(1.00153 0.00149673 0)
(1.00156 0.00162476 0)
(1.00167 0.00153917 0)
(1.00167 0.00157362 0)
(1.00159 0.00175826 0)
(1.00156 0.00199856 0)
(1.00162 0.00257969 0)
(1.00169 0.00354409 0)
(1.0017 0.00492375 0)
(1.0017 0.00652506 0)
(1.00171 0.00825813 0)
(1.00031 -0.00020876 0)
(0.999867 0.000419401 0)
(1.00024 -0.000394718 0)
(1.00048 4.35649e-05 0)
(1.00019 0.00118899 0)
(1.00012 0.00154479 0)
(1.00062 0.00168444 0)
(1.0012 0.00157692 0)
(1.00145 0.00166626 0)
(1.00149 0.00150859 0)
(1.00153 0.00160637 0)
(1.00164 0.00155969 0)
(1.00165 0.00156212 0)
(1.00158 0.00177989 0)
(1.00159 0.0020795 0)
(1.0017 0.00267502 0)
(1.00183 0.00362798 0)
(1.00191 0.0049962 0)
(1.00196 0.00657308 0)
(1.00199 0.00822635 0)
(1.00032 -0.000233382 0)
(0.999863 0.000471727 0)
(1.00023 -0.00042904 0)
(1.00052 9.4961e-05 0)
(1.00022 0.00110468 0)
(1.00012 0.00157053 0)
(1.00061 0.00161679 0)
(1.00118 0.00158009 0)
(1.00142 0.00165143 0)
(1.00146 0.00150916 0)
(1.0015 0.00158727 0)
(1.00161 0.00159268 0)
(1.00163 0.00156745 0)
(1.00159 0.00180062 0)
(1.00162 0.00216785 0)
(1.00178 0.00279336 0)
(1.00198 0.00372269 0)
(1.00213 0.00504861 0)
(1.00222 0.00659011 0)
(1.00227 0.00817835 0)
(1.00032 -0.000260912 0)
(0.999856 0.0005363 0)
(1.00022 -0.000473135 0)
(1.00056 0.00014966 0)
(1.00026 0.00102133 0)
(1.00013 0.00158445 0)
(1.00058 0.00157309 0)
(1.00115 0.00156218 0)
(1.00138 0.00164863 0)
(1.00142 0.00150516 0)
(1.00147 0.00155974 0)
(1.00157 0.00162519 0)
(1.00161 0.00159645 0)
(1.00159 0.00182348 0)
(1.00166 0.00225505 0)
(1.00186 0.00292698 0)
(1.00213 0.00383694 0)
(1.00235 0.00509392 0)
(1.00248 0.00657485 0)
(1.00254 0.00810476 0)
(1.00033 -0.000291046 0)
(0.999846 0.000612443 0)
(1.00021 -0.000523961 0)
(1.00059 0.000200566 0)
(1.00029 0.000947503 0)
(1.00013 0.00157445 0)
(1.00056 0.00155687 0)
(1.00113 0.00152717 0)
(1.00134 0.00165437 0)
(1.00138 0.00151108 0)
(1.00144 0.00152954 0)
(1.00153 0.00164937 0)
(1.00158 0.00164812 0)
(1.0016 0.00185897 0)
(1.00171 0.00233361 0)
(1.00195 0.00306186 0)
(1.00227 0.00396741 0)
(1.00256 0.00514613 0)
(1.00274 0.00653528 0)
(1.00282 0.00799744 0)
(1.00033 -0.000323093 0)
(0.999832 0.000697576 0)
(1.0002 -0.000576946 0)
(1.00063 0.000241031 0)
(1.00032 0.000890927 0)
(1.00013 0.0015339 0)
(1.00053 0.00156119 0)
(1.00109 0.00148049 0)
(1.0013 0.0016558 0)
(1.00133 0.00153524 0)
(1.0014 0.00150561 0)
(1.0015 0.00167101 0)
(1.00156 0.0017217 0)
(1.00161 0.00192241 0)
(1.00176 0.00240825 0)
(1.00205 0.00318833 0)
(1.00242 0.00410557 0)
(1.00276 0.00521479 0)
(1.003 0.00649046 0)
(1.00309 0.00786004 0)
(1.00033 -0.000356805 0)
(0.999814 0.000789084 0)
(1.00018 -0.0006248 0)
(1.00066 0.000261694 0)
(1.00034 0.000859784 0)
(1.00013 0.00146329 0)
(1.00049 0.00157779 0)
(1.00106 0.00143255 0)
(1.00126 0.00164145 0)
(1.00128 0.00157464 0)
(1.00136 0.00149084 0)
(1.00147 0.00168998 0)
(1.00153 0.00181406 0)
(1.00162 0.00201674 0)
(1.00182 0.00248787 0)
(1.00216 0.0032994 0)
(1.00257 0.00424113 0)
(1.00296 0.00529912 0)
(1.00324 0.00645814 0)
(1.00335 0.00770821 0)
(1.00033 -0.000390152 0)
(0.999791 0.000879883 0)
(1.00016 -0.000660548 0)
(1.00069 0.000253579 0)
(1.00036 0.000862054 0)
(1.00012 0.00137187 0)
(1.00045 0.00160303 0)
(1.00102 0.00139945 0)
(1.00122 0.00160762 0)
(1.00122 0.00162355 0)
(1.00132 0.00149221 0)
(1.00144 0.001697 0)
(1.00151 0.00191596 0)
(1.00162 0.00213881 0)
(1.00188 0.00258125 0)
(1.00227 0.00338904 0)
(1.00272 0.00435962 0)
(1.00314 0.00538646 0)
(1.00346 0.00644033 0)
(1.0036 0.0075567 0)
(1.00033 -0.000422034 0)
(0.999764 0.000964462 0)
(1.00012 -0.000674559 0)
(1.00073 0.000206231 0)
(1.00037 0.000890501 0)
(1.00012 0.00126579 0)
(1.00041 0.00162399 0)
(1.00097 0.00139511 0)
(1.00118 0.00155601 0)
(1.00116 0.00167441 0)
(1.00127 0.0015261 0)
(1.00142 0.00169703 0)
(1.00149 0.00201631 0)
(1.00162 0.00228987 0)
(1.00194 0.00269875 0)
(1.00239 0.00346008 0)
(1.00288 0.00444403 0)
(1.00332 0.0054582 0)
(1.00367 0.00642686 0)
(1.00382 0.00741087 0)
(1.00033 -0.000449435 0)
(0.999733 0.00103671 0)
(1.00008 -0.000656476 0)
(1.00076 0.000112543 0)
(1.00038 0.000936521 0)
(1.00011 0.00115689 0)
(1.00037 0.00162036 0)
(1.00091 0.00142453 0)
(1.00114 0.00149457 0)
(1.0011 0.00171227 0)
(1.00121 0.00159631 0)
(1.0014 0.00170724 0)
(1.00149 0.00210251 0)
(1.00162 0.00246349 0)
(1.00199 0.00284889 0)
(1.00251 0.00352887 0)
(1.00304 0.00448619 0)
(1.0035 0.00549614 0)
(1.00386 0.00640617 0)
(1.00402 0.00726982 0)
(1.00033 -0.000473132 0)
(0.999699 0.00109192 0)
(1.00002 -0.000599443 0)
(1.00078 -1.02817e-05 0)
(1.00038 0.000993725 0)
(1.00009 0.00106622 0)
(1.00033 0.00158009 0)
(1.00084 0.00147758 0)
(1.00109 0.0014406 0)
(1.00104 0.00172806 0)
(1.00114 0.00169525 0)
(1.00137 0.00174384 0)
(1.00149 0.00216638 0)
(1.00163 0.00263734 0)
(1.00203 0.00303231 0)
(1.00262 0.00361823 0)
(1.0032 0.00449421 0)
(1.00368 0.00548538 0)
(1.00403 0.00636311 0)
(1.0042 0.00712883 0)
(1.00032 -0.000491972 0)
(0.999663 0.0011233 0)
(0.999953 -0.000500064 0)
(1.00081 -0.00015386 0)
(1.00039 0.00104939 0)
(1.00006 0.00100722 0)
(1.00029 0.00150683 0)
(1.00077 0.00153724 0)
(1.00104 0.00140857 0)
(1.00099 0.00172431 0)
(1.00107 0.00181364 0)
(1.00134 0.00182224 0)
(1.0015 0.00221704 0)
(1.00165 0.00278519 0)
(1.00206 0.00323449 0)
(1.0027 0.0037424 0)
(1.00336 0.00449187 0)
(1.00386 0.00542307 0)
(1.0042 0.00627767 0)
(1.00435 0.0069751 0)
(1.00031 -0.000498989 0)
(0.999628 0.00111872 0)
(0.999871 -0.000361823 0)
(1.00083 -0.000319812 0)
(1.00039 0.00108893 0)
(1.00003 0.000985084 0)
(1.00026 0.00141533 0)
(1.00069 0.00159985 0)
(1.00097 0.00140702 0)
(1.00095 0.00170361 0)
(1.00101 0.0019333 0)
(1.00129 0.00194455 0)
(1.00152 0.00227688 0)
(1.00169 0.0028994 0)
(1.00209 0.00343187 0)
(1.00277 0.00390105 0)
(1.00349 0.00451215 0)
(1.00403 0.00533135 0)
(1.00437 0.00614327 0)
(1.00449 0.00679435 0)
(1.00031 -0.000498321 0)
(0.999596 0.00108151 0)
(0.999776 -0.000189624 0)
(1.00085 -0.000490439 0)
(1.00039 0.00108794 0)
(0.999978 0.000999137 0)
(1.00022 0.00131138 0)
(1.00062 0.00165662 0)
(1.0009 0.00144054 0)
(1.00091 0.00167301 0)
(1.00095 0.00203554 0)
(1.00124 0.00209917 0)
(1.00153 0.00235796 0)
(1.00174 0.00298481 0)
(1.00214 0.0036004 0)
(1.00283 0.00407746 0)
(1.00359 0.00457525 0)
(1.00418 0.00524694 0)
(1.00452 0.00597619 0)
(1.00461 0.00658099 0)
(1.0003 -0.000488354 0)
(0.999569 0.00100845 0)
(0.99967 1.1375e-05 0)
(1.00086 -0.000640194 0)
(1.00041 0.00102896 0)
(0.999921 0.00104409 0)
(1.00018 0.00120384 0)
(1.00055 0.00168939 0)
(1.00081 0.00150529 0)
(1.00087 0.0016443 0)
(1.00091 0.002115 0)
(1.00119 0.00227763 0)
(1.00153 0.0024665 0)
(1.00179 0.00304357 0)
(1.00219 0.00372261 0)
(1.00288 0.00423964 0)
(1.00367 0.00466877 0)
(1.00431 0.00519064 0)
(1.00466 0.00580083 0)
(1.00472 0.00634118 0)
(1.00028 -0.000466106 0)
(0.99955 0.000897845 0)
(0.999556 0.000232118 0)
(1.00085 -0.000745095 0)
(1.00043 0.00092107 0)
(0.999859 0.00110975 0)
(1.00014 0.00110677 0)
(1.00049 0.00169259 0)
(1.00072 0.00160041 0)
(1.00082 0.0016309 0)
(1.00088 0.00216997 0)
(1.00114 0.00247412 0)
(1.00152 0.00261923 0)
(1.00185 0.00309056 0)
(1.00227 0.00379359 0)
(1.00293 0.00436469 0)
(1.00372 0.00476768 0)
(1.0044 0.00516256 0)
(1.00478 0.00563435 0)
(1.00482 0.00608623 0)
(1.00027 -0.0004345 0)
(0.99954 0.000760842 0)
(0.999439 0.000457018 0)
(1.00083 -0.000797827 0)
(1.00047 0.000775536 0)
(0.999796 0.00118201 0)
(1.0001 0.00103357 0)
(1.00044 0.00166854 0)
(1.00062 0.00172683 0)
(1.00078 0.00164665 0)
(1.00088 0.0021878 0)
(1.0011 0.00265935 0)
(1.00149 0.0028194 0)
(1.0019 0.00315529 0)
(1.00235 0.00381339 0)
(1.00299 0.00443782 0)
(1.00377 0.00485188 0)
(1.00445 0.00515516 0)
(1.00486 0.00548739 0)
(1.0049 0.00582991 0)
(1.00025 -0.000393918 0)
(0.999542 0.00060552 0)
(0.999323 0.000665287 0)
(1.00079 -0.000794089 0)
(1.00051 0.000608156 0)
(0.999737 0.00124122 0)
(1.00004 0.000992785 0)
(1.0004 0.00161545 0)
(1.00053 0.00186909 0)
(1.00072 0.00171053 0)
(1.00088 0.00217218 0)
(1.00108 0.00279655 0)
(1.00146 0.00304338 0)
(1.00192 0.00326393 0)
(1.00244 0.00379905 0)
(1.00307 0.00444092 0)
(1.0038 0.00489566 0)
(1.00448 0.00515137 0)
(1.0049 0.00536199 0)
(1.00494 0.0055843 0)
(1.00023 -0.000346127 0)
(0.999554 0.000441644 0)
(0.999212 0.000846582 0)
(1.00073 -0.000735637 0)
(1.00056 0.000436203 0)
(0.999685 0.0012806 0)
(0.99998 0.000978459 0)
(1.00038 0.00154118 0)
(1.00045 0.0019969 0)
(1.00064 0.00182712 0)
(1.00089 0.00215184 0)
(1.0011 0.00287868 0)
(1.00142 0.0032649 0)
(1.00192 0.00342213 0)
(1.00251 0.00379398 0)
(1.00316 0.00437934 0)
(1.00385 0.00487647 0)
(1.00448 0.0051314 0)
(1.0049 0.0052542 0)
(1.00495 0.00535944 0)
(1.00021 -0.000291277 0)
(0.999578 0.000275882 0)
(0.999111 0.000994068 0)
(1.00065 -0.000632372 0)
(1.00061 0.000266136 0)
(0.999645 0.00130628 0)
(0.99991 0.000982899 0)
(1.00037 0.00145732 0)
(1.00038 0.00210261 0)
(1.00056 0.00198335 0)
(1.0009 0.00214543 0)
(1.00114 0.00289839 0)
(1.00141 0.00345667 0)
(1.00189 0.00361561 0)
(1.00254 0.00383303 0)
(1.00324 0.00428759 0)
(1.00391 0.00478519 0)
(1.00448 0.0050717 0)
(1.00486 0.00515247 0)
(1.00492 0.00516041 0)
(1.00019 -0.000232931 0)
(0.999613 0.000118085 0)
(0.999024 0.0010972 0)
(1.00055 -0.000493303 0)
(1.00067 0.000109137 0)
(0.999617 0.00132278 0)
(0.999832 0.00101828 0)
(1.00037 0.00135641 0)
(1.00034 0.00218309 0)
(1.00046 0.00218115 0)
(1.00089 0.00218011 0)
(1.0012 0.0028527 0)
(1.00142 0.0035759 0)
(1.00185 0.0038193 0)
(1.00254 0.00391963 0)
(1.00331 0.00420741 0)
(1.00397 0.00463911 0)
(1.00448 0.00494984 0)
(1.00481 0.00503399 0)
(1.00485 0.0049775 0)
(1.00017 -0.00017343 0)
(0.999655 -2.61606e-05 0)
(0.998953 0.00116231 0)
(1.00043 -0.000326752 0)
(1.00072 -2.8155e-05 0)
(0.999607 0.00131311 0)
(0.999743 0.00108987 0)
(1.00038 0.0012453 0)
(1.00033 0.00220879 0)
(1.00036 0.00240723 0)
(1.00086 0.0022795 0)
(1.00127 0.00278096 0)
(1.00147 0.00360265 0)
(1.00181 0.00399456 0)
(1.0025 0.00404795 0)
(1.00333 0.00416983 0)
(1.00403 0.0044804 0)
(1.0045 0.00477283 0)
(1.00475 0.00487853 0)
(1.00475 0.00479721 0)
(1.00014 -0.000111671 0)
(0.999705 -0.000160407 0)
(0.998902 0.00118906 0)
(1.00031 -0.000140211 0)
(1.00077 -0.000142486 0)
(0.999617 0.00127959 0)
(0.999647 0.00118161 0)
(1.00038 0.00115046 0)
(1.00036 0.00217521 0)
(1.00027 0.00262378 0)
(1.00079 0.00244003 0)
(1.00134 0.00272243 0)
(1.00155 0.00354181 0)
(1.0018 0.00409179 0)
(1.00244 0.00418741 0)
(1.0033 0.00418258 0)
(1.00405 0.00434428 0)
(1.00451 0.00457435 0)
(1.00469 0.00468439 0)
(1.00463 0.00460592 0)
(1.00012 -5.16155e-05 0)
(0.99976 -0.000277886 0)
(0.998873 0.00117943 0)
(1.00017 5.7491e-05 0)
(1.0008 -0.000226302 0)
(0.999649 0.00123174 0)
(0.999546 0.0013027 0)
(1.00038 0.0010815 0)
(1.00042 0.00208243 0)
(1.00021 0.00280258 0)
(1.00069 0.0026593 0)
(1.00137 0.00271742 0)
(1.00166 0.00341617 0)
(1.00183 0.00409451 0)
(1.00237 0.00428699 0)
(1.00323 0.0042271 0)
(1.00403 0.004247 0)
(1.0045 0.00438204 0)
(1.00463 0.0044725 0)
(1.00451 0.00439724 0)
(1.00009 4.95716e-06 0)
(0.999819 -0.000372278 0)
(0.998867 0.0011378 0)
(1.00003 0.000263709 0)
(1.00083 -0.0002791 0)
(0.999705 0.0011539 0)
(0.999445 0.00145685 0)
(1.00035 0.00106792 0)
(1.00052 0.00191737 0)
(1.00019 0.0029091 0)
(1.00057 0.00291492 0)
(1.00135 0.00278364 0)
(1.00177 0.00327197 0)
(1.00189 0.00400304 0)
(1.00231 0.0043235 0)
(1.00313 0.00426952 0)
(1.00397 0.00419122 0)
(1.00447 0.00421538 0)
(1.00456 0.00426817 0)
(1.00438 0.00418793 0)
(1.00007 5.66156e-05 0)
(0.999878 -0.000441035 0)
(0.998887 0.00106074 0)
(0.999886 0.000472197 0)
(1.00084 -0.000302121 0)
(0.999788 0.00104298 0)
(0.999355 0.00161093 0)
(1.00029 0.00112315 0)
(1.00063 0.00172293 0)
(1.00024 0.00290713 0)
(1.00045 0.00317171 0)
(1.00128 0.00292307 0)
(1.00185 0.00316652 0)
(1.00199 0.0038231 0)
(1.00228 0.00427225 0)
(1.00301 0.00427475 0)
(1.00386 0.00414898 0)
(1.00439 0.00408128 0)
(1.00448 0.0040808 0)
(1.00424 0.00399791 0)
(1.00005 0.000101961 0)
(0.999935 -0.000483763 0)
(0.998932 0.000957384 0)
(0.999747 0.000668514 0)
(1.00083 -0.000283707 0)
(0.999897 0.000904911 0)
(0.999286 0.0017497 0)
(1.0002 0.00123732 0)
(1.00073 0.00155528 0)
(1.00034 0.0027876 0)
(1.00036 0.0033601 0)
(1.00116 0.00313773 0)
(1.00187 0.00313712 0)
(1.00209 0.00362256 0)
(1.0023 0.00412199 0)
(1.00291 0.00422219 0)
(1.00372 0.00409295 0)
(1.00429 0.00396791 0)
(1.00438 0.00391746 0)
(1.00409 0.00383123 0)
(1.00003 0.000139518 0)
(0.999989 -0.000501702 0)
(0.999002 0.000832018 0)
(0.999618 0.000845436 0)
(1.00079 -0.000217127 0)
(1.00003 0.000740155 0)
(0.999252 0.00184888 0)
(1.00007 0.00142609 0)
(1.00081 0.00143659 0)
(1.0005 0.0025825 0)
(1.00034 0.00342848 0)
(1.00101 0.00336809 0)
(1.00182 0.00318696 0)
(1.00217 0.00346061 0)
(1.00234 0.00390994 0)
(1.00283 0.00409245 0)
(1.00358 0.00400884 0)
(1.00415 0.00385888 0)
(1.00426 0.00378085 0)
(1.00395 0.00369305 0)
(1.00001 0.00016655 0)
(1.00004 -0.000489527 0)
(0.999095 0.000689781 0)
(0.999506 0.000995213 0)
(1.00073 -0.000104838 0)
(1.00017 0.000563039 0)
(0.999266 0.00187025 0)
(0.999933 0.00166589 0)
(1.00085 0.00139676 0)
(1.00069 0.00232628 0)
(1.00039 0.00338844 0)
(1.00088 0.00354283 0)
(1.00171 0.00331441 0)
(1.00219 0.00335769 0)
(1.00238 0.00369222 0)
(1.00278 0.00388997 0)
(1.00344 0.00386654 0)
(1.00401 0.00373152 0)
(1.00413 0.00364592 0)
(1.0038 0.00357567 0)
(0.999997 0.000181859 0)
(1.00007 -0.000446109 0)
(0.999207 0.000537787 0)
(0.999417 0.00110412 0)
(1.00064 5.14254e-05 0)
(1.00032 0.000403428 0)
(0.999338 0.001817 0)
(0.999795 0.00189547 0)
(1.00082 0.00146612 0)
(1.00088 0.00207162 0)
(1.00052 0.00321466 0)
(1.00079 0.00363314 0)
(1.00157 0.0034666 0)
(1.00214 0.00334035 0)
(1.00239 0.00350773 0)
(1.00274 0.00366776 0)
(1.00333 0.00366652 0)
(1.00387 0.00356857 0)
(1.00401 0.00349424 0)
(1.00367 0.00345677 0)
(0.999987 0.000186125 0)
(1.0001 -0.0003773 0)
(0.999331 0.00038652 0)
(0.999361 0.00116025 0)
(1.00052 0.000250835 0)
(1.00045 0.000287335 0)
(0.999465 0.00169024 0)
(0.999683 0.00208203 0)
(1.00073 0.00161992 0)
(1.00104 0.00190136 0)
(1.00071 0.00292059 0)
(1.00078 0.00360923 0)
(1.00142 0.0035796 0)
(1.00203 0.00338981 0)
(1.00235 0.00338274 0)
(1.00269 0.00345703 0)
(1.00323 0.00344281 0)
(1.00375 0.00336058 0)
(1.00391 0.00331483 0)
(1.00358 0.00331641 0)
(0.999979 0.000179571 0)
(1.00012 -0.000289708 0)
(0.999459 0.000255585 0)
(0.999341 0.00116047 0)
(1.0004 0.000470562 0)
(1.00055 0.000237458 0)
(0.999639 0.00149058 0)
(0.99962 0.0022026 0)
(1.00061 0.00181849 0)
(1.00113 0.00182216 0)
(1.00092 0.00262427 0)
(1.00085 0.00342688 0)
(1.0013 0.00363131 0)
(1.00188 0.00345222 0)
(1.00225 0.00333781 0)
(1.0026 0.00328664 0)
(1.00311 0.00322412 0)
(1.00364 0.00312844 0)
(1.00384 0.00309601 0)
(1.00352 0.00314262 0)
(0.999975 0.000165119 0)
(1.00012 -0.00019428 0)
(0.999584 0.000155049 0)
(0.999357 0.00111001 0)
(1.00027 0.000681191 0)
(1.00061 0.000261745 0)
(0.999843 0.00126626 0)
(0.999625 0.00221334 0)
(1.00047 0.00203959 0)
(1.00115 0.00181207 0)
(1.00111 0.00238503 0)
(1.00099 0.00313568 0)
(1.00125 0.00355979 0)
(1.00172 0.00349936 0)
(1.00211 0.00333552 0)
(1.00246 0.00319181 0)
(1.00297 0.00303532 0)
(1.00352 0.00290508 0)
(1.00378 0.00285241 0)
(1.00352 0.00293263 0)
(0.999974 0.000146062 0)
(1.00012 -0.000100974 0)
(0.999698 8.87291e-05 0)
(0.999406 0.00101847 0)
(1.00015 0.000859442 0)
(1.00063 0.000352843 0)
(1.00005 0.00107465 0)
(0.999703 0.00210769 0)
(1.00034 0.00222006 0)
(1.0011 0.00190516 0)
(1.00126 0.00219067 0)
(1.00116 0.00284884 0)
(1.00129 0.00334273 0)
(1.00161 0.00348134 0)
(1.00193 0.0033405 0)
(1.00227 0.0031555 0)
(1.00278 0.00291523 0)
(1.00337 0.00271058 0)
(1.00372 0.00261511 0)
(1.00355 0.00269146 0)
(0.999975 0.000124849 0)
(1.0001 -1.8375e-05 0)
(0.999795 5.67421e-05 0)
(0.99948 0.000902854 0)
(1.00005 0.000986214 0)
(1.0006 0.000495977 0)
(1.00023 0.0009412 0)
(0.999841 0.00192798 0)
(1.00026 0.00229227 0)
(1.001 0.00206866 0)
(1.00133 0.00207484 0)
(1.00132 0.00258022 0)
(1.00139 0.00306399 0)
(1.00157 0.00334024 0)
(1.00178 0.00332907 0)
(1.00206 0.00314742 0)
(1.00254 0.00287173 0)
(1.00317 0.00258296 0)
(1.00363 0.00241062 0)
(1.00361 0.00244663 0)
(0.999977 0.000104245 0)
(1.00009 5.32817e-05 0)
(0.999872 5.75071e-05 0)
(0.999571 0.000780828 0)
(0.999984 0.00105311 0)
(1.00054 0.000659652 0)
(1.00038 0.000871766 0)
(1.00001 0.00172626 0)
(1.00025 0.00225957 0)
(1.00088 0.00219832 0)
(1.00133 0.00208113 0)
(1.00145 0.00234252 0)
(1.00151 0.00277955 0)
(1.0016 0.00310471 0)
(1.00168 0.00323558 0)
(1.00184 0.00314359 0)
(1.00226 0.0028708 0)
(1.0029 0.00253939 0)
(1.00348 0.00227133 0)
(1.00364 0.00223173 0)
(0.99998 8.66267e-05 0)
(1.00007 0.000111296 0)
(0.999928 8.62929e-05 0)
(0.999669 0.00066973 0)
(0.999951 0.00106398 0)
(1.00048 0.000810966 0)
(1.00047 0.000866588 0)
(1.00019 0.00153792 0)
(1.0003 0.00214724 0)
(1.00079 0.0022505 0)
(1.00126 0.002149 0)
(1.00151 0.00220491 0)
(1.00163 0.00249864 0)
(1.00168 0.00283458 0)
(1.00166 0.00304483 0)
(1.00168 0.00309491 0)
(1.00197 0.00288982 0)
(1.00257 0.00255913 0)
(1.00325 0.00222352 0)
(1.00362 0.00207803 0)
(0.999982 7.42083e-05 0)
(1.00005 0.000148727 0)
(0.999965 0.000133191 0)
(0.999762 0.000581409 0)
(0.99995 0.00102932 0)
(1.00041 0.000929083 0)
(1.00052 0.000910908 0)
(1.00034 0.00139258 0)
(1.00039 0.00197505 0)
(1.00075 0.00223347 0)
(1.00117 0.00218784 0)
(1.00149 0.00216982 0)
(1.00171 0.0022749 0)
(1.00178 0.00255532 0)
(1.0017 0.00280211 0)
(1.0016 0.00295965 0)
(1.00173 0.00289136 0)
(1.00223 0.00261167 0)
(1.00294 0.00225805 0)
(1.00349 0.00201171 0)
(0.999985 6.71717e-05 0)
(1.00004 0.00016887 0)
(0.999989 0.000187 0)