/*--------------------------------*- C++ -*----------------------------------*\
| =========                 |                                                 |
| \\      /  F ield         | OpenFOAM: The Open Source CFD Toolbox           |
|  \\    /   O peration     | Version:  v2012                                 |
|   \\  /    A nd           | Website:  www.openfoam.com                      |
|    \\/     M anipulation  |                                                 |
\*---------------------------------------------------------------------------*/
FoamFile
{
    version     2.0;
    format      ascii;
    class       volVectorField;
    location    "0.65";
    object      U;
}
// * * * * * * * * * * * * * * * * * * * * * * * * * * * * * * * * * * * * * //

dimensions      [0 1 -1 0 0 0 0];


internalField   nonuniform List<vector> 
17600
(
(0.839981 0.0024327 0)
(1.15723 -0.00374989 0)
(0.837853 0.000164476 0)
(1.15262 0.00385185 0)
(0.856233 -0.000170622 0)
(1.13555 0.00147405 0)
(0.856966 0.000109465 0)
(1.12264 0.00101641 0)
(0.859115 -7.76428e-05 0)
(1.11077 0.00043896 0)
(0.861706 0.000321838 0)
(1.1034 -1.06356e-05 0)
(0.862781 0.000977048 0)
(1.09755 -0.000586764 0)
(0.861065 0.00123027 0)
(1.09413 -0.000943584 0)
(0.85461 0.00170509 0)
(1.09247 -0.00117869 0)
(0.840866 0.0026499 0)
(1.09101 -0.00126534 0)
(0.849382 0.00237133 0)
(1.14466 -0.00355496 0)
(0.84715 2.93453e-05 0)
(1.13958 0.00386899 0)
(0.871031 -0.000210645 0)
(1.12102 0.0016336 0)
(0.875292 3.7137e-05 0)
(1.10506 0.00119536 0)
(0.881816 -0.000165784 0)
(1.08901 0.000631842 0)
(0.889889 0.000187565 0)
(1.07537 0.000245673 0)
(0.899006 0.000885089 0)
(1.0598 -0.000374892 0)
(0.909836 0.00119773 0)
(1.04122 -0.000819173 0)
(0.923433 0.00196161 0)
(1.0156 -0.0014317 0)
(0.94104 0.00393775 0)
(0.976679 -0.00236015 0)
(0.867888 0.00233314 0)
(1.12267 -0.00336114 0)
(0.867037 -0.000118614 0)
(1.11399 0.00383967 0)
(0.8975 -0.000208136 0)
(1.09401 0.00175662 0)
(0.906211 5.31137e-05 0)
(1.07477 0.00130151 0)
(0.917296 -0.000126396 0)
(1.05484 0.000679808 0)
(0.929549 0.000266931 0)
(1.03721 0.000233328 0)
(0.942416 0.00102725 0)
(1.01888 -0.000466179 0)
(0.955097 0.00145196 0)
(1.00093 -0.000979162 0)
(0.965724 0.00233107 0)
(0.983657 -0.00151196 0)
(0.97112 0.00431595 0)
(0.968124 -0.00115717 0)
(0.892895 0.00233824 0)
(1.09523 -0.00322557 0)
(0.894491 -0.000179056 0)
(1.08129 0.00370925 0)
(0.928601 -0.000142789 0)
(1.06203 0.00176832 0)
(0.938946 0.000166751 0)
(1.04261 0.0012723 0)
(0.95043 3.4882e-05 0)
(1.02354 0.000590524 0)
(0.96095 0.000470655 0)
(1.00885 8.37673e-05 0)
(0.969894 0.0012661 0)
(0.99668 -0.000634258 0)
(0.976227 0.00172331 0)
(0.987676 -0.00111314 0)
(0.978548 0.00260275 0)
(0.980779 -0.00146887 0)
(0.97589 0.00451987 0)
(0.974175 3.05362e-05 0)
(0.920294 0.00237291 0)
(1.06739 -0.00314237 0)
(0.92375 -0.000144108 0)
(1.04913 0.00350105 0)
(0.956582 -4.44926e-05 0)
(1.03386 0.00171553 0)
(0.964803 0.000321947 0)
(1.01828 0.0011942 0)
(0.972757 0.00021862 0)
(1.00418 0.000492788 0)
(0.978335 0.00064668 0)
(0.995506 -2.11709e-05 0)
(0.981935 0.00142286 0)
(0.989941 -0.000707079 0)
(0.983565 0.00186112 0)
(0.986392 -0.00112443 0)
(0.982639 0.00272922 0)
(0.982691 -0.00132776 0)
(0.978855 0.00466626 0)
(0.977085 0.00104291 0)
(0.945803 0.00241998 0)
(1.04372 -0.00309687 0)
(0.949418 -4.21319e-05 0)
(1.02389 0.00327123 0)
(0.976843 4.47851e-05 0)
(1.01469 0.00165665 0)
(0.981139 0.000462934 0)
(1.00486 0.00113461 0)
(0.984812 0.000364165 0)
(0.996209 0.000439137 0)
(0.986375 0.000762531 0)
(0.992127 -6.71458e-05 0)
(0.98703 0.0015005 0)
(0.989966 -0.000727132 0)
(0.987142 0.00192231 0)
(0.988255 -0.0010906 0)
(0.985754 0.00278538 0)
(0.985209 -0.00111781 0)
(0.98213 0.00474308 0)
(0.980007 0.00200631 0)
(0.966367 0.00246176 0)
(1.02661 -0.00307123 0)
(0.96862 9.33459e-05 0)
(1.0081 0.00306605 0)
(0.989043 0.000100099 0)
(1.00459 0.00161632 0)
(0.990002 0.000564518 0)
(0.999834 0.00110385 0)
(0.990929 0.000465624 0)
(0.994914 0.000416266 0)
(0.990689 0.000839821 0)
(0.993172 -9.44478e-05 0)
(0.990462 0.00154321 0)
(0.992279 -0.00074005 0)
(0.990396 0.0019549 0)
(0.991145 -0.00103843 0)
(0.98908 0.00279827 0)
(0.988374 -0.000837067 0)
(0.985613 0.00474336 0)
(0.983593 0.00295414 0)
(0.980888 0.00248487 0)
(1.01589 -0.00304951 0)
(0.981231 0.000232299 0)
(1.00052 0.00290471 0)
(0.995425 0.000121458 0)
(1.0006 0.00159096 0)
(0.994635 0.000629111 0)
(0.999203 0.00108592 0)
(0.99458 0.000538161 0)
(0.996314 0.000399791 0)
(0.994037 0.00089726 0)
(0.995638 -0.000121584 0)
(0.993766 0.00157182 0)
(0.99522 -0.000751846 0)
(0.993779 0.00196986 0)
(0.994352 -0.000964748 0)
(0.992552 0.00277138 0)
(0.991784 -0.000489777 0)
(0.989243 0.00468096 0)
(0.98737 0.00386269 0)
(0.989989 0.00248537 0)
(1.00983 -0.00302374 0)
(0.988749 0.000354262 0)
(0.998151 0.00278424 0)
(0.998584 0.000123943 0)
(0.999604 0.0015687 0)
(0.997299 0.000669318 0)
(1.0001 0.00106539 0)
(0.997272 0.000594484 0)
(0.9983 0.000376716 0)
(0.99702 0.000943932 0)
(0.998214 -0.000152391 0)
(0.996906 0.00159033 0)
(0.998035 -0.000757122 0)
(0.99698 0.00196412 0)
(0.997341 -0.000862118 0)
(0.995814 0.00270441 0)
(0.994957 -8.85106e-05 0)
(0.992676 0.00458039 0)
(0.990914 0.00470334 0)
(0.995161 0.0024678 0)
(1.00648 -0.0029931 0)
(0.992984 0.000450374 0)
(0.998236 0.00269239 0)
(1.00026 0.000123546 0)
(0.999643 0.00154187 0)
(0.999024 0.000695861 0)
(1.00114 0.00103526 0)
(0.999345 0.000640934 0)
(1.00002 0.000344085 0)
(0.999497 0.000982566 0)
(1.00036 -0.00018533 0)
(0.999541 0.00159743 0)
(1.00034 -0.000749631 0)
(0.999636 0.00193107 0)
(0.99978 -0.0007234 0)
(0.998511 0.00259819 0)
(0.997575 0.000355085 0)
(0.99556 0.0044693 0)
(0.99392 0.0054489 0)
(0.997914 0.00243981 0)
(1.0045 -0.00295917 0)
(0.99532 0.000520284 0)
(0.999062 0.00261683 0)
(1.00128 0.000129351 0)
(0.999879 0.00150916 0)
(1.00017 0.000715409 0)
(1.00191 0.000995058 0)
(1.00082 0.000680622 0)
(1.00124 0.000302708 0)
(1.00131 0.00101347 0)
(1.0019 -0.000218035 0)
(1.00147 0.00159076 0)
(1.002 -0.000723753 0)
(1.00157 0.00186582 0)
(1.00155 -0.000548525 0)
(1.00048 0.00246003 0)
(0.999514 0.000824688 0)
(0.997735 0.00437571 0)
(0.996236 0.00607687 0)
(0.999334 0.00240744 0)
(1.00326 -0.00292293 0)
(0.996601 0.000567815 0)
(0.999862 0.00254916 0)
(1.00193 0.0001435 0)
(1.00007 0.00147215 0)
(1.00089 0.000732001 0)
(1.00237 0.000946441 0)
(1.00175 0.000715764 0)
(1.002 0.000254806 0)
(1.00247 0.00103595 0)
(1.00289 -0.000247161 0)
(1.00272 0.00156628 0)
(1.00307 -0.000675226 0)
(1.00281 0.00176963 0)
(1.0027 -0.000346626 0)
(1.00177 0.00230111 0)
(1.00081 0.00129427 0)
(0.999233 0.0043266 0)
(0.997882 0.0065773 0)
(1.00005 0.00237355 0)
(1.00249 -0.00288432 0)
(0.997295 0.000598411 0)
(1.00042 0.00248473 0)
(1.00233 0.000164281 0)
(1.00019 0.00143267 0)
(1.0013 0.00074748 0)
(1.00261 0.000892408 0)
(1.00225 0.000746466 0)
(1.00241 0.000204874 0)
(1.00312 0.00104786 0)
(1.00345 -0.000267944 0)
(1.00341 0.00152195 0)
(1.00368 -0.000606236 0)
(1.00352 0.00165238 0)
(1.00337 -0.000129368 0)
(1.00253 0.00213482 0)
(1.0016 0.00173251 0)
(1.0002 0.00433763 0)
(0.998992 0.0069535 0)
(1.00041 0.0023387 0)
(1.00204 -0.0028429 0)
(0.997665 0.000617441 0)
(1.00073 0.00242146 0)
(1.00255 0.00018872 0)
(1.00025 0.00139212 0)
(1.0015 0.000762553 0)
(1.00272 0.000835794 0)
(1.00249 0.000772705 0)
(1.00262 0.00015733 0)
(1.00343 0.00104597 0)
(1.00374 -0.000274766 0)
(1.00375 0.00145168 0)
(1.00399 -0.000510041 0)
(1.00387 0.00150569 0)
(1.00372 0.000111092 0)
(1.00296 0.0019974 0)
(1.00206 0.00212528 0)
(1.00082 0.00441781 0)
(0.999738 0.00722796 0)
(1.00057 0.00230242 0)
(1.00181 -0.00279801 0)
(0.997867 0.000628865 0)
(1.00089 0.00235905 0)
(1.00265 0.000213682 0)
(1.00029 0.00135174 0)
(1.00159 0.000776937 0)
(1.00277 0.000778618 0)
(1.00258 0.000794272 0)
(1.0027 0.000114534 0)
(1.00355 0.00102987 0)
(1.00386 -0.000266169 0)
(1.00388 0.00135668 0)
(1.00413 -0.000391395 0)
(1.00404 0.00133679 0)
(1.00389 0.000363589 0)
(1.00319 0.00190843 0)
(1.00234 0.00246432 0)
(1.00124 0.00455944 0)
(1.00027 0.00742802 0)
(1.00063 0.00226404 0)
(1.00169 -0.00274887 0)
(0.997989 0.000635095 0)
(1.00096 0.00229788 0)
(1.00269 0.000236535 0)
(1.00031 0.00131311 0)
(1.00161 0.000788506 0)
(1.00278 0.0007239 0)
(1.0026 0.000808152 0)
(1.00273 8.01378e-05 0)
(1.00358 0.000998084 0)
(1.00391 -0.000241651 0)
(1.00393 0.00124423 0)
(1.00418 -0.000265449 0)
(1.00411 0.00117227 0)
(1.00397 0.000596039 0)
(1.00334 0.00186107 0)
(1.00253 0.00274573 0)
(1.00156 0.00474054 0)
(1.0007 0.00757673 0)
(1.00065 0.00222299 0)
(1.00164 -0.00269475 0)
(0.998078 0.000637108 0)
(1.00098 0.00223906 0)
(1.0027 0.000255372 0)
(1.00032 0.00127729 0)
(1.00161 0.000796216 0)
(1.00278 0.000673182 0)
(1.00259 0.000812385 0)
(1.00274 5.68446e-05 0)
(1.00358 0.000947639 0)
(1.00393 -0.000200968 0)
(1.00393 0.00111446 0)
(1.00419 -0.000135186 0)
(1.00416 0.00102084 0)
(1.00401 0.00079478 0)
(1.00345 0.00185879 0)
(1.00271 0.00298388 0)
(1.00185 0.0049444 0)
(1.00109 0.00769802 0)
(1.00064 0.00217894 0)
(1.00161 -0.0026351 0)
(0.998157 0.000634392 0)
(1.00099 0.00218349 0)
(1.00269 0.000269666 0)
(1.00033 0.00124599 0)
(1.0016 0.000798651 0)
(1.00278 0.000629007 0)
(1.00257 0.000804933 0)
(1.00274 4.56194e-05 0)
(1.00356 0.000879422 0)
(1.00393 -0.000148598 0)
(1.00393 0.000975316 0)
(1.00419 -1.46672e-05 0)
(1.00419 0.000892585 0)
(1.00406 0.000955035 0)
(1.00356 0.00189922 0)
(1.00288 0.00318721 0)
(1.00212 0.00515254 0)
(1.00146 0.00780473 0)
(1.00063 0.00213169 0)
(1.00158 -0.00256956 0)
(0.998233 0.000626167 0)
(1.00099 0.00213159 0)
(1.00268 0.000277624 0)
(1.00034 0.00122116 0)
(1.00157 0.000792409 0)
(1.00277 0.000594318 0)
(1.00254 0.000783794 0)
(1.00273 4.76275e-05 0)
(1.00355 0.000794516 0)
(1.00393 -8.90211e-05 0)
(1.00392 0.000833425 0)
(1.00418 9.70526e-05 0)
(1.00423 0.000796329 0)
(1.0041 0.001083 0)
(1.00367 0.00197646 0)
(1.00306 0.00336615 0)
(1.0024 0.00535328 0)
(1.00182 0.00790456 0)
(1.00062 0.00208097 0)
(1.00156 -0.00249722 0)
(0.998309 0.000611427 0)
(1.00098 0.00208556 0)
(1.00266 0.00027585 0)
(1.00034 0.00120459 0)
(1.00155 0.000776502 0)
(1.00276 0.000568347 0)
(1.00251 0.000750378 0)
(1.00272 6.13005e-05 0)
(1.00353 0.000696652 0)
(1.00392 -2.97397e-05 0)
(1.00392 0.000696219 0)
(1.00417 0.000192521 0)
(1.00426 0.000730838 0)
(1.00416 0.00118643 0)
(1.00379 0.00207885 0)
(1.00326 0.00352982 0)
(1.00268 0.0055378 0)
(1.00217 0.00800001 0)
(1.0006 0.00202644 0)
(1.00154 -0.00241644 0)
(0.998386 0.000588524 0)
(1.00097 0.00204756 0)
(1.00264 0.000262874 0)
(1.00035 0.00119717 0)
(1.00153 0.000752395 0)
(1.00274 0.000550469 0)
(1.00248 0.000705983 0)
(1.0027 8.30752e-05 0)
(1.00351 0.000594643 0)
(1.0039 2.24307e-05 0)
(1.00391 0.000572872 0)
(1.00416 0.000256689 0)
(1.0043 0.000688062 0)
(1.00422 0.00127013 0)
(1.00392 0.0021943 0)
(1.00347 0.00368478 0)
(1.00297 0.00570241 0)
(1.00253 0.00809153 0)
(1.00059 0.00196755 0)
(1.00152 -0.00232559 0)
(0.998465 0.000555953 0)
(1.00097 0.00201856 0)
(1.00263 0.000238243 0)
(1.00035 0.00119924 0)
(1.0015 0.000718661 0)
(1.00273 0.000542364 0)
(1.00246 0.00065208 0)
(1.00268 0.000108656 0)
(1.00349 0.000494955 0)
(1.00389 6.21645e-05 0)
(1.00391 0.000469356 0)
(1.00416 0.000294406 0)
(1.00434 0.000662995 0)
(1.0043 0.00133872 0)
(1.00406 0.00231749 0)
(1.00369 0.00383695 0)
(1.00327 0.00585152 0)
(1.00288 0.00818086 0)
(1.00057 0.00190442 0)
(1.0015 -0.00222484 0)
(0.998544 0.000513281 0)
(1.00096 0.00199918 0)
(1.00261 0.000201494 0)
(1.00035 0.00121286 0)
(1.00147 0.000673418 0)
(1.00271 0.000541448 0)
(1.00243 0.000592286 0)
(1.00266 0.000130606 0)
(1.00347 0.000403341 0)
(1.00387 8.21776e-05 0)
(1.0039 0.000384812 0)
(1.00416 0.000312138 0)
(1.00438 0.000649424 0)
(1.00439 0.00139448 0)
(1.00421 0.00244314 0)
(1.00392 0.00398529 0)
(1.00359 0.00598612 0)
(1.00324 0.00826227 0)
(1.00056 0.00183683 0)
(1.00147 -0.00211328 0)
(0.998625 0.00045802 0)
(1.00095 0.00199199 0)
(1.00259 0.000152101 0)
(1.00036 0.00123645 0)
(1.00144 0.000621623 0)
(1.0027 0.000541314 0)
(1.0024 0.000534853 0)
(1.00264 0.000140652 0)
(1.00345 0.000326651 0)
(1.00386 8.07267e-05 0)
(1.0039 0.000312986 0)
(1.00416 0.000321095 0)
(1.00443 0.00064879 0)
(1.00449 0.00144676 0)
(1.00437 0.00256998 0)
(1.00416 0.00413077 0)
(1.00391 0.00610651 0)
(1.0036 0.00832949 0)
(1.00054 0.0017648 0)
(1.00145 -0.00198953 0)
(0.998705 0.000386996 0)
(1.00094 0.00199611 0)
(1.00257 9.247e-05 0)
(1.00036 0.00126567 0)
(1.00141 0.000571365 0)
(1.00268 0.000535095 0)
(1.00236 0.000490634 0)
(1.00261 0.000133331 0)
(1.00343 0.000264984 0)
(1.00384 5.97431e-05 0)
(1.00389 0.000249356 0)
(1.00417 0.000330781 0)
(1.00449 0.000665547 0)
(1.00461 0.0015059 0)
(1.00455 0.00269632 0)
(1.00442 0.00427507 0)
(1.00423 0.00621379 0)
(1.00397 0.00838031 0)
(1.00052 0.00168801 0)
(1.00142 -0.00185322 0)
(0.998787 0.00030141 0)
(1.00092 0.00200944 0)
(1.00255 2.14886e-05 0)
(1.00036 0.00129846 0)
(1.00137 0.000523999 0)
(1.00266 0.000514866 0)
(1.00233 0.000464445 0)
(1.00259 0.000106446 0)
(1.00341 0.000215471 0)
(1.00382 2.74374e-05 0)
(1.00389 0.000186838 0)
(1.00418 0.000343327 0)
(1.00455 0.000698148 0)
(1.00473 0.00157322 0)
(1.00474 0.00281567 0)
(1.00468 0.00441344 0)
(1.00457 0.00630721 0)
(1.00434 0.00841312 0)
(1.00051 0.00160645 0)
(1.00139 -0.0017034 0)
(0.998869 0.000202879 0)
(1.00091 0.00203037 0)
(1.00253 -5.73812e-05 0)
(1.00036 0.00132764 0)
(1.00133 0.000487869 0)
(1.00264 0.000471403 0)
(1.00229 0.000455816 0)
(1.00255 6.63642e-05 0)
(1.00338 0.000167273 0)
(1.0038 1.8653e-06 0)
(1.00389 0.000125896 0)
(1.00419 0.000363473 0)
(1.00462 0.000755583 0)
(1.00487 0.00165799 0)
(1.00494 0.00293441 0)
(1.00496 0.00454691 0)
(1.00491 0.00639262 0)
(1.00472 0.00843258 0)
(1.00049 0.0015205 0)
(1.00135 -0.00153957 0)
(0.99895 9.2662e-05 0)
(1.00089 0.00205507 0)
(1.0025 -0.000135698 0)
(1.00036 0.00134384 0)
(1.00129 0.000472429 0)
(1.00262 0.000401834 0)
(1.00226 0.000461829 0)
(1.00252 1.512e-05 0)
(1.00336 0.000108556 0)
(1.00378 -8.65166e-06 0)
(1.00389 7.58618e-05 0)
(1.00422 0.000390262 0)
(1.00469 0.000843627 0)
(1.00502 0.00176501 0)
(1.00516 0.00305825 0)
(1.00524 0.00467298 0)
(1.00526 0.00647068 0)
(1.00511 0.00843925 0)
(1.00047 0.00143036 0)
(1.00131 -0.00136329 0)
(0.99903 -2.52462e-05 0)
(1.00088 0.00207836 0)
(1.00248 -0.000204999 0)
(1.00036 0.00133749 0)
(1.00123 0.000485669 0)
(1.0026 0.000312325 0)
(1.00222 0.000480696 0)
(1.00248 -3.63994e-05 0)
(1.00333 4.16786e-05 0)
(1.00376 -5.17458e-06 0)
(1.0039 4.82804e-05 0)
(1.00426 0.000419276 0)
(1.00477 0.000953661 0)
(1.00517 0.00188847 0)
(1.00539 0.00318398 0)
(1.00553 0.00478561 0)
(1.00561 0.00653601 0)
(1.0055 0.00842866 0)
(1.00046 0.00133664 0)
(1.00127 -0.00117463 0)
(0.999109 -0.000149612 0)
(1.00086 0.00209761 0)
(1.00245 -0.000257764 0)
(1.00037 0.00129915 0)
(1.00117 0.000527899 0)
(1.00257 0.000209447 0)
(1.00217 0.000498751 0)
(1.00243 -6.18164e-05 0)
(1.00331 -3.32191e-05 0)
(1.00374 1.16831e-05 0)
(1.00391 5.38841e-05 0)
(1.0043 0.000459539 0)
(1.00487 0.00108079 0)
(1.00533 0.0020289 0)
(1.00563 0.00331169 0)
(1.00583 0.00488656 0)
(1.00597 0.00658835 0)
(1.00589 0.00840039 0)
(1.00044 0.0012393 0)
(1.00122 -0.000977074 0)
(0.999185 -0.000272479 0)
(1.00083 0.00210244 0)
(1.00241 -0.00029061 0)
(1.00037 0.00123091 0)
(1.0011 0.000589531 0)
(1.00254 0.000103127 0)
(1.00213 0.000501679 0)
(1.00238 -5.62328e-05 0)
(1.00329 -0.000112526 0)
(1.00372 4.53156e-05 0)
(1.00391 0.000103036 0)
(1.00436 0.000521348 0)
(1.00497 0.00121737 0)
(1.0055 0.00218278 0)
(1.00587 0.00343732 0)
(1.00614 0.0049749 0)
(1.00632 0.00662571 0)
(1.00628 0.00835298 0)
(1.00042 0.00114039 0)
(1.00116 -0.000780485 0)
(0.999256 -0.000382006 0)
(1.00081 0.00207695 0)
(1.00236 -0.000291015 0)
(1.00038 0.00113509 0)
(1.00103 0.000668869 0)
(1.00251 -2.7513e-07 0)
(1.00209 0.000482912 0)
(1.00231 -2.66912e-05 0)
(1.00327 -0.000182551 0)
(1.00371 8.77535e-05 0)
(1.00392 0.000199657 0)
(1.00442 0.000613352 0)
(1.00509 0.00135611 0)
(1.00568 0.00234184 0)
(1.00611 0.00355604 0)
(1.00645 0.0050473 0)
(1.00668 0.0066457 0)
(1.00666 0.00828756 0)
(1.0004 0.00104422 0)
(1.0011 -0.000590295 0)
(0.999322 -0.000475121 0)
(1.00079 0.0020186 0)
(1.00231 -0.000259304 0)
(1.00038 0.00101465 0)
(1.00095 0.00075605 0)
(1.00247 -8.75677e-05 0)
(1.00206 0.000440541 0)
(1.00224 2.18159e-05 0)
(1.00324 -0.000227615 0)
(1.00371 0.00012619 0)
(1.00393 0.000328998 0)
(1.00448 0.000735877 0)
(1.00521 0.00149402 0)
(1.00586 0.00249699 0)
(1.00636 0.00366545 0)
(1.00676 0.00509851 0)
(1.00704 0.00664203 0)
(1.00704 0.00820248 0)
(1.00038 0.000946006 0)
(1.00103 -0.000400875 0)
(0.99938 -0.00053906 0)
(1.00077 0.00192301 0)
(1.00225 -0.000208529 0)
(1.00039 0.000880591 0)
(1.00086 0.0008372 0)
(1.00241 -0.000145896 0)
(1.00203 0.000378607 0)
(1.00216 9.22893e-05 0)
(1.00321 -0.000235065 0)
(1.00372 0.000165847 0)
(1.00395 0.000477207 0)
(1.00455 0.000885204 0)
(1.00535 0.00163363 0)
(1.00604 0.0026438 0)
(1.0066 0.00376686 0)
(1.00707 0.00512649 0)
(1.0074 0.0066077 0)
(1.00741 0.00809205 0)
(1.00037 0.000850069 0)
(1.00095 -0.00022536 0)
(0.999428 -0.000565833 0)
(1.00074 0.00179361 0)
(1.00218 -0.000144037 0)
(1.0004 0.000747273 0)
(1.00077 0.000902999 0)
(1.00235 -0.000176005 0)
(1.002 0.000307406 0)
(1.00209 0.000186423 0)
(1.00318 -0.000197809 0)
(1.00374 0.000214011 0)
(1.00397 0.000634965 0)
(1.00462 0.00105434 0)
(1.00548 0.00177774 0)
(1.00623 0.00278298 0)
(1.00685 0.00386602 0)
(1.00738 0.00513999 0)
(1.00775 0.0065453 0)
(1.00778 0.00795539 0)
(1.00035 0.000762161 0)
(1.00088 -7.50353e-05 0)
(0.999465 -0.000552855 0)
(1.00072 0.00164078 0)
(1.00211 -7.17286e-05 0)
(1.0004 0.000625103 0)
(1.00068 0.000945251 0)
(1.00227 -0.00017084 0)
(1.00198 0.000234385 0)
(1.00201 0.000288 0)
(1.00314 -0.000112799 0)
(1.00376 0.000274194 0)
(1.00401 0.000793419 0)
(1.00468 0.00122844 0)
(1.00561 0.00191942 0)
(1.00642 0.00290898 0)
(1.00708 0.00396303 0)
(1.00768 0.00514853 0)
(1.0081 0.00646187 0)
(1.00814 0.00779458 0)
(1.00033 0.000676328 0)
(1.0008 5.74599e-05 0)
(0.99949 -0.000501472 0)
(1.0007 0.00147161 0)
(1.00203 -3.83364e-06 0)
(1.0004 0.000514247 0)
(1.00059 0.00096247 0)
(1.00218 -0.000136032 0)
(1.00195 0.000170268 0)
(1.00194 0.000385942 0)
(1.00309 1.18101e-05 0)
(1.00379 0.000350248 0)
(1.00406 0.000948489 0)
(1.00475 0.00140211 0)
(1.00575 0.00205385 0)
(1.00661 0.00301781 0)
(1.00732 0.00405205 0)
(1.00797 0.00515465 0)
(1.00844 0.00636216 0)
(1.00849 0.00760957 0)
(1.00031 0.000598369 0)
(1.00072 0.000160447 0)
(0.999502 -0.000419129 0)
(1.00067 0.00130203 0)
(1.00194 5.12092e-05 0)
(1.0004 0.000415893 0)
(1.00051 0.000963481 0)
(1.00208 -7.77297e-05 0)
(1.00194 0.000127231 0)
(1.00188 0.000481074 0)
(1.00304 0.000171777 0)
(1.00383 0.000455205 0)
(1.00411 0.00109613 0)
(1.00482 0.00157211 0)
(1.00588 0.00217523 0)
(1.00681 0.0031052 0)
(1.00755 0.00412374 0)
(1.00825 0.00515492 0)
(1.00877 0.00625104 0)
(1.00883 0.00740311 0)
(1.00029 0.000529497 0)
(1.00064 0.000232236 0)
(0.999503 -0.0003182 0)
(1.00064 0.00114532 0)
(1.00185 9.79506e-05 0)
(1.00039 0.000330899 0)
(1.00042 0.000947927 0)
(1.00197 7.0134e-07 0)
(1.00192 0.000113937 0)
(1.00184 0.000569358 0)
(1.00299 0.000350831 0)
(1.00386 0.000599897 0)
(1.00417 0.00124726 0)
(1.00489 0.00174037 0)
(1.00601 0.00228417 0)
(1.00701 0.00316608 0)
(1.00779 0.0041675 0)
(1.00851 0.0051405 0)
(1.00908 0.00612861 0)
(1.00916 0.00717695 0)
(1.00027 0.000467312 0)
(1.00056 0.000275846 0)
(0.999495 -0.000201068 0)
(1.0006 0.00100553 0)
(1.00177 0.000134965 0)
(1.00038 0.000260927 0)
(1.00035 0.000915105 0)
(1.00187 9.95007e-05 0)
(1.0019 0.000137934 0)
(1.0018 0.000650761 0)
(1.00295 0.00052737 0)
(1.00389 0.000763405 0)
(1.00424 0.00141086 0)
(1.00495 0.00191399 0)
(1.00613 0.00239503 0)
(1.0072 0.00320924 0)
(1.00802 0.00418535 0)
(1.00877 0.00511106 0)
(1.00937 0.00599851 0)
(1.00948 0.00693684 0)
(1.00025 0.000415036 0)
(1.00049 0.000297594 0)
(0.999479 -7.38538e-05 0)
(1.00056 0.000884137 0)
(1.00168 0.000170438 0)
(1.00037 0.000215275 0)
(1.00027 0.000856107 0)
(1.00176 0.000217788 0)
(1.00188 0.000215475 0)
(1.00178 0.000745837 0)
(1.0029 0.000697201 0)
(1.00392 0.000913687 0)
(1.00431 0.00156884 0)
(1.00502 0.00208483 0)
(1.00624 0.00250858 0)
(1.0074 0.00323922 0)
(1.00826 0.00417641 0)
(1.00901 0.00506477 0)
(1.00963 0.00586249 0)
(1.00977 0.00668844 0)
(1.00023 0.000370303 0)
(1.00043 0.000304952 0)
(0.999455 5.50017e-05 0)
(1.00051 0.000774912 0)
(1.00158 0.000210635 0)
(1.00034 0.000207064 0)
(1.00021 0.000785139 0)
(1.00165 0.000328608 0)
(1.00186 0.000341435 0)
(1.00176 0.000866027 0)
(1.00286 0.000865585 0)
(1.00396 0.00104946 0)
(1.00438 0.00171209 0)
(1.00508 0.00225195 0)
(1.00634 0.00262662 0)
(1.00758 0.00326163 0)
(1.00849 0.00414077 0)
(1.00924 0.00499797 0)
(1.00988 0.00572107 0)
(1.01004 0.00643723 0)
(1.00021 0.000334002 0)
(1.00037 0.000293583 0)
(0.999425 0.000186437 0)
(1.00046 0.000681369 0)
(1.0015 0.000242224 0)
(1.00031 0.000241845 0)
(1.00015 0.000734389 0)
(1.00156 0.000407601 0)
(1.00184 0.000482001 0)
(1.00174 0.00101523 0)
(1.00282 0.00104042 0)
(1.00399 0.00117844 0)
(1.00447 0.00183511 0)
(1.00514 0.00241038 0)
(1.00642 0.00274805 0)
(1.00775 0.00327875 0)
(1.00872 0.00407897 0)
(1.00947 0.00490343 0)
(1.0101 0.00557016 0)
(1.01028 0.00618557 0)
(1.00018 0.000310172 0)
(1.00031 0.000255285 0)
(0.999392 0.000318685 0)
(1.0004 0.00060736 0)
(1.00141 0.000266282 0)
(1.00028 0.000321259 0)
(1.00009 0.000707528 0)
(1.00148 0.000449131 0)
(1.00182 0.000612954 0)
(1.00172 0.00119421 0)
(1.00277 0.00122981 0)
(1.00401 0.00130849 0)
(1.00456 0.00193467 0)
(1.0052 0.00254942 0)
(1.00649 0.00286737 0)
(1.00789 0.00329233 0)
(1.00894 0.00399508 0)
(1.00969 0.00477669 0)
(1.0103 0.00540126 0)
(1.01049 0.0059295 0)
(1.00016 0.000293543 0)
(1.00027 0.000194983 0)
(0.999359 0.000453071 0)
(1.00034 0.00055306 0)
(1.00134 0.000264409 0)
(1.00024 0.000445598 0)
(1.00003 0.000734937 0)
(1.00141 0.000477606 0)
(1.00183 0.000716076 0)
(1.00171 0.00138267 0)
(1.00271 0.00145163 0)
(1.00403 0.001458 0)
(1.00465 0.00202089 0)
(1.00527 0.00266564 0)
(1.00654 0.0029821 0)
(1.00801 0.00331154 0)
(1.00914 0.00390523 0)
(1.00991 0.00463114 0)
(1.01049 0.00522116 0)
(1.01067 0.00567787 0)
(1.00014 0.000289462 0)
(1.00024 0.000117914 0)
(0.999328 0.000571058 0)
(1.00026 0.00054206 0)
(1.00128 0.000218661 0)
(1.00021 0.000585333 0)
(0.99995 0.000840983 0)
(1.00134 0.000514184 0)
(1.00185 0.000777003 0)
(1.00172 0.00155336 0)
(1.00265 0.00170255 0)
(1.00402 0.00163799 0)
(1.00475 0.00210659 0)
(1.00535 0.00275825 0)
(1.00658 0.00308496 0)
(1.0081 0.00333282 0)
(1.00932 0.0038096 0)
(1.01012 0.00446338 0)
(1.01066 0.00502013 0)
(1.01081 0.00541999 0)
(1.00012 0.00028691 0)
(1.00021 4.45911e-05 0)
(0.999305 0.000664518 0)
(1.00018 0.00058428 0)
(1.00122 0.00015458 0)
(1.00019 0.000706827 0)
(0.999866 0.00102361 0)
(1.00126 0.00058138 0)
(1.00188 0.000800096 0)
(1.00175 0.00168406 0)
(1.00259 0.00195109 0)
(1.004 0.00184641 0)
(1.00483 0.00220629 0)
(1.00544 0.00283902 0)
(1.00661 0.00318291 0)
(1.00816 0.00336482 0)
(1.00947 0.00372083 0)
(1.01031 0.00428296 0)
(1.01083 0.00480165 0)
(1.01094 0.00515659 0)
(1.0001 0.000286941 0)
(1.0002 -2.08252e-05 0)
(0.999294 0.000721466 0)
(1.00009 0.000665654 0)
(1.00118 0.00010682 0)
(1.0002 0.000775829 0)
(0.99978 0.00126703 0)
(1.00115 0.000720735 0)
(1.00192 0.00082059 0)
(1.00182 0.00175584 0)
(1.00254 0.0021726 0)
(1.00396 0.00206983 0)
(1.0049 0.00231832 0)
(1.00553 0.0029042 0)
(1.00664 0.0032649 0)
(1.00819 0.0033988 0)
(1.00958 0.00363801 0)
(1.01049 0.00409211 0)
(1.01098 0.00456409 0)
(1.01104 0.00488494 0)
(1.00008 0.000295108 0)
(1.00019 -8.48012e-05 0)
(0.999299 0.000742629 0)
(0.999988 0.000774111 0)
(1.00113 8.65629e-05 0)
(1.00025 0.000767199 0)
(0.999707 0.00151108 0)
(1.00103 0.000959273 0)
(1.00196 0.000871135 0)
(1.00191 0.00177678 0)
(1.00252 0.0023529 0)
(1.00391 0.00229703 0)
(1.00495 0.00244264 0)
(1.00561 0.00295323 0)
(1.00666 0.00331789 0)
(1.0082 0.00341796 0)
(1.00966 0.0035488 0)
(1.01063 0.0038821 0)
(1.01112 0.00429251 0)
(1.01112 0.00458496 0)
(1.00006 0.000296837 0)
(1.00019 -0.000126268 0)
(0.999321 0.000735428 0)
(0.99989 0.000900737 0)
(1.00107 0.000102851 0)
(1.00032 0.0007163 0)
(0.999668 0.00171453 0)
(1.00089 0.001286 0)
(1.00197 0.000972611 0)
(1.00202 0.00177747 0)
(1.00253 0.00247361 0)
(1.00385 0.00251083 0)
(1.00498 0.00258412 0)
(1.0057 0.0030059 0)
(1.00669 0.00335835 0)
(1.00818 0.0034344 0)
(1.00968 0.0034696 0)
(1.01074 0.00367396 0)
(1.01124 0.00400167 0)
(1.0112 0.0042609 0)
(1.00004 0.000297348 0)
(1.00019 -0.000147667 0)
(0.999363 0.000687334 0)
(0.999798 0.00104055 0)
(1.001 0.000178772 0)
(1.00041 0.000656674 0)
(0.999674 0.00185147 0)
(1.00074 0.00164574 0)
(1.00194 0.00116505 0)
(1.00214 0.00178559 0)
(1.00258 0.00253803 0)
(1.00381 0.0026872 0)
(1.00499 0.00272916 0)
(1.00576 0.00306428 0)
(1.00671 0.00339082 0)
(1.00814 0.00344704 0)
(1.00966 0.0034009 0)
(1.0108 0.00347502 0)
(1.01134 0.00369795 0)
(1.01126 0.00390922 0)
(1.00003 0.000292724 0)
(1.00019 -0.000139813 0)
(0.999422 0.000608349 0)
(0.999721 0.0011595 0)
(1.00092 0.000319097 0)
(1.00052 0.000606679 0)
(0.999731 0.00190656 0)
(1.0006 0.0019791 0)
(1.00187 0.00146517 0)
(1.00225 0.001838 0)
(1.00265 0.00258203 0)
(1.00378 0.00282335 0)
(1.00499 0.00286656 0)
(1.00582 0.00312615 0)
(1.00672 0.003418 0)
(1.00807 0.00345591 0)
(1.0096 0.00334133 0)
(1.0108 0.00329115 0)
(1.01139 0.0033918 0)
(1.0113 0.00353382 0)
(1.00002 0.000281536 0)
(1.00019 -0.000107775 0)
(0.999495 0.000528283 0)
(0.999665 0.00123363 0)
(1.00082 0.000507394 0)
(1.00062 0.000593279 0)
(0.999834 0.00189921 0)
(1.0005 0.00225433 0)
(1.00178 0.00181154 0)
(1.00232 0.00196039 0)
(1.00274 0.00262017 0)
(1.00377 0.00292471 0)
(1.00498 0.00298721 0)
(1.00586 0.00318787 0)
(1.00673 0.00344315 0)
(1.00799 0.00346661 0)
(1.00948 0.00329603 0)
(1.01073 0.00313184 0)
(1.01139 0.00310079 0)
(1.01131 0.00314995 0)
(1.00001 0.000268435 0)
(1.00019 -6.5136e-05 0)
(0.999575 0.000462245 0)
(0.999634 0.00127664 0)
(1.00072 0.000723303 0)
(1.00071 0.000629523 0)
(0.999976 0.00184921 0)
(1.00045 0.00246554 0)
(1.00168 0.00214921 0)
(1.00235 0.00216543 0)
(1.00282 0.00267456 0)
(1.00378 0.0030057 0)
(1.00497 0.0030833 0)
(1.00589 0.00323862 0)
(1.00673 0.00345876 0)
(1.0079 0.00347377 0)
(1.00932 0.00326165 0)
(1.01059 0.00299576 0)
(1.01131 0.00283214 0)
(1.01127 0.00276897 0)
(0.999999 0.000252799 0)
(1.00018 -7.89794e-06 0)
(0.999659 0.000408525 0)
(0.99963 0.00128396 0)
(1.00061 0.000941843 0)
(1.00077 0.000727428 0)
(1.00014 0.00178777 0)
(1.00045 0.00259126 0)
(1.00158 0.00245922 0)
(1.00236 0.00242077 0)
(1.00289 0.00277847 0)
(1.0038 0.00308092 0)
(1.00495 0.00316018 0)
(1.00591 0.0032732 0)
(1.00673 0.00345969 0)
(1.00779 0.00347198 0)
(1.00912 0.00323589 0)
(1.01038 0.00288395 0)
(1.01115 0.00259215 0)
(1.01116 0.00240445 0)
(0.999994 0.000234476 0)
(1.00016 5.83454e-05 0)
(0.999742 0.000379827 0)
(0.999653 0.00125542 0)
(1.00052 0.00113217 0)
(1.00081 0.000880396 0)
(1.00032 0.001756 0)
(1.0005 0.00263047 0)
(1.00151 0.00271442 0)
(1.00234 0.00267243 0)
(1.00293 0.00293483 0)
(1.0038 0.00316434 0)
(1.00493 0.00323065 0)
(1.00591 0.00329007 0)
(1.00672 0.00343704 0)
(1.00767 0.00344913 0)
(1.00889 0.00320787 0)
(1.0101 0.00279235 0)
(1.0109 0.00238297 0)
(1.01096 0.00206626 0)
(0.99999 0.000216823 0)
(1.00015 0.000122443 0)
(0.999817 0.000380416 0)
(0.999696 0.00121697 0)
(1.00044 0.00128614 0)
(1.00083 0.00105775 0)
(1.00048 0.00176457 0)
(1.00059 0.00263383 0)
(1.00147 0.00289474 0)
(1.00232 0.00289747 0)
(1.00294 0.00311465 0)
(1.00379 0.00327574 0)
(1.00489 0.00330422 0)
(1.00589 0.00330052 0)
(1.0067 0.00338959 0)
(1.00755 0.00339488 0)
(1.00863 0.00316355 0)
(1.00975 0.0027127 0)
(1.01055 0.00220605 0)
(1.01066 0.00176397 0)
(0.999988 0.000202061 0)
(1.00013 0.000185544 0)
(0.999885 0.000398355 0)
(0.999755 0.0011752 0)
(1.00039 0.00140534 0)
(1.00084 0.00124568 0)
(1.00063 0.00180009 0)
(1.00071 0.00262885 0)
(1.00147 0.00300628 0)
(1.0023 0.00308459 0)
(1.00295 0.00327762 0)
(1.00376 0.0034127 0)
(1.00483 0.00338834 0)
(1.00584 0.0033189 0)
(1.00666 0.00332857 0)
(1.00743 0.0033074 0)
(1.00835 0.00309232 0)
(1.00935 0.00263526 0)
(1.0101 0.00206366 0)
(1.01025 0.00151136 0)
(0.999987 0.000188576 0)
(1.00011 0.000243632 0)
(0.999942 0.000437297 0)
(0.999825 0.00113951 0)
(1.00036 0.0014824 0)
(1.00083 0.00142439 0)
(1.00076 0.00187085 0)
(1.00084 0.00262113 0)
(1.0015 0.00305959 0)
(1.00229 0.00322179 0)
(1.00295 0.00340773 0)
(1.00372 0.00354355 0)
(1.00473 0.00349067 0)
(1.00575 0.00335102 0)
(1.00658 0.00327034 0)
(1.0073 0.00319549 0)
(1.00808 0.00298731 0)
(1.00891 0.00254672 0)
(1.00958 0.00194792 0)
(1.00973 0.00131475 0)
(0.999987 0.000179997 0)
(1.0001 0.00028995 0)
(0.999992 0.000488663 0)
(0.999897 0.00112202 0)
(1.00035 0.00153004 0)
(1.00083 0.00156941 0)
(1.00086 0.00195938 0)
(1.00096 0.00263076 0)
(1.00155 0.0030816 0)
(1.0023 0.00329674 0)
(1.00295 0.00350505 0)
(1.00367 0.00363776 0)
(1.00461 0.00359901 0)
(1.00561 0.00339919 0)
(1.00645 0.00323267 0)
(1.00714 0.00307829 0)
(1.00779 0.00285487 0)
(1.00846 0.0024328 0)
(1.009 0.00184048 0)
(1.00912 0.00115971 0)
(0.999988 0.000174297 0)
(1.00009 0.000330969 0)
(1.00003 0.000543337 0)
(0.99997 0.00111583 0)
(1.00036 0.00156197 0)
(1.00084 0.00168452 0)
(1.00096 0.00204191 0)
(1.00108 0.00264539 0)
(1.0016 0.00310299 0)
(1.00233 0.00331947 0)
(1.00296 0.00355274 0)
(1.00362 0.00369485 0)
(1.00447 0.00368107 0)
(1.00542 0.00346306 0)
(1.00626 0.003219 0)
(1.00693 0.00297821 0)
(1.00749 0.00270994 0)
(1.008 0.00229102 0)
(1.00838 0.0017162 0)
(1.00842 0.00101961 0)
(0.999989 0.000170943 0)
(1.00008 0.000363828 0)
(1.00007 0.000598375 0)
(1.00004 0.00112395 0)
(1.00039 0.001582 0)
(1.00086 0.00176826 0)
(1.00105 0.00211617 0)
(1.00119 0.00265161 0)
(1.00166 0.00311606 0)
(1.00235 0.00332694 0)
(1.00298 0.00354331 0)
(1.00359 0.00370784 0)
(1.00434 0.00372035 0)
(1.0052 0.00352009 0)
(1.00601 0.00322614 0)
(1.00666 0.00290518 0)
(1.00715 0.00257301 0)
(1.00752 0.00213355 0)