/*--------------------------------*- C++ -*----------------------------------*\
| =========                 |                                                 |
| \\      /  F ield         | OpenFOAM: The Open Source CFD Toolbox           |
|  \\    /   O peration     | Version:  v2012                                 |
|   \\  /    A nd           | Website:  www.openfoam.com                      |
|    \\/     M anipulation  |                                                 |
\*---------------------------------------------------------------------------*/
FoamFile
{
    version     2.0;
    format      ascii;
    class       volScalarField;
    location    "3.95";
    object      p;
}
// * * * * * * * * * * * * * * * * * * * * * * * * * * * * * * * * * * * * * //

dimensions      [0 2 -2 0 0 0 0];


internalField   nonuniform List<scalar> 
17600
(
1.04613e-12
-9.64152e-07
-0.000357185
-0.00129505
-0.00136747
-0.0016539
-0.00154381
-0.00263676
-0.00263813
-0.00360208
-0.00372862
-0.00424916
-0.00448016
-0.00421817
-0.00436096
-0.00356577
-0.00302827
-0.00120817
0.000660602
0.00438666
9.75251e-07
-1.78664e-06
-0.000356593
-0.00129506
-0.00136672
-0.00165545
-0.00154307
-0.0026406
-0.002637
-0.00360737
-0.00372707
-0.00425516
-0.00447776
-0.00422849
-0.00435649
-0.00358444
-0.0030179
-0.0012777
0.00067504
0.00407166
1.94956e-06
-3.20028e-06
-0.00035521
-0.00129539
-0.00136623
-0.00165803
-0.00154343
-0.00264654
-0.00263657
-0.00361542
-0.00372487
-0.00426386
-0.00447435
-0.00424066
-0.00435122
-0.00360499
-0.00300783
-0.00134779
0.000673329
0.00364704
2.58928e-06
-4.88266e-06
-0.000353294
-0.00129636
-0.00136648
-0.00166121
-0.00154546
-0.00265367
-0.00263763
-0.00362416
-0.00372327
-0.00427224
-0.00447107
-0.0042521
-0.00434524
-0.00362654
-0.00300029
-0.00141869
0.00064135
0.00323218
2.95466e-06
-6.8536e-06
-0.000350888
-0.00129805
-0.00136719
-0.00166497
-0.00154846
-0.00266193
-0.00263906
-0.00363305
-0.00372157
-0.00427973
-0.00446753
-0.00426308
-0.00433865
-0.00365087
-0.00299456
-0.00149438
0.000578536
0.00283896
3.10637e-06
-9.12299e-06
-0.000347973
-0.00130034
-0.00136808
-0.00166915
-0.00155169
-0.002671
-0.00263996
-0.00364177
-0.00371914
-0.00428633
-0.00446351
-0.00427393
-0.00433225
-0.00367755
-0.00299178
-0.00157528
0.000486163
0.00246906
3.08438e-06
-1.16138e-05
-0.000344595
-0.00130303
-0.00136896
-0.0016735
-0.00155476
-0.00268054
-0.00264021
-0.00365014
-0.00371621
-0.00429215
-0.00445947
-0.00428487
-0.00432665
-0.00370606
-0.00299421
-0.00166013
0.000365144
0.00211794
2.95523e-06
-1.42385e-05
-0.000340846
-0.00130593
-0.00136977
-0.00167789
-0.00155762
-0.00269043
-0.00264007
-0.00365822
-0.00371333
-0.00429731
-0.00445611
-0.00429578
-0.00432265
-0.00373582
-0.00300403
-0.00174771
0.000216191
0.00177956
2.80641e-06
-1.69526e-05
-0.000336803
-0.00130892
-0.00137056
-0.00168226
-0.00156038
-0.00270064
-0.00263985
-0.00366608
-0.00371088
-0.00430182
-0.00445389
-0.00430628
-0.00432121
-0.00376603
-0.00302319
-0.00183755
4.09238e-05
0.00144804
2.71704e-06
-1.97548e-05
-0.000332524
-0.00131202
-0.00137142
-0.00168665
-0.0015632
-0.00271114
-0.0026398
-0.00367365
-0.00370912
-0.00430555
-0.00445319
-0.00431595
-0.00432321
-0.00379598
-0.00305333
-0.00193009
-0.00015765
0.00111812
2.7446e-06
-2.26648e-05
-0.000328045
-0.00131522
-0.00137241
-0.00169105
-0.00156619
-0.00272183
-0.00264014
-0.00368074
-0.00370838
-0.00430813
-0.0044545
-0.00432436
-0.00432936
-0.00382532
-0.00309556
-0.00202686
-0.00037537
0.000785665
2.92991e-06
-2.57051e-05
-0.000323388
-0.00131856
-0.00137357
-0.00169546
-0.00156942
-0.00273255
-0.00264107
-0.00368709
-0.00370902
-0.00430911
-0.00445848
-0.00433105
-0.00434037
-0.00385426
-0.00314998
-0.00213049
-0.000607563
0.000448204
3.30693e-06
-2.88925e-05
-0.000318565
-0.00132202
-0.00137489
-0.00169983
-0.00157296
-0.00274317
-0.00264283
-0.00369239
-0.0037115
-0.00430803
-0.00446573
-0.00433559
-0.00435689
-0.00388368
-0.00321557
-0.00224432
-0.000849984
0.000105216
3.90906e-06
-3.22374e-05
-0.000313586
-0.00132558
-0.00137642
-0.00170414
-0.00157685
-0.0027535
-0.00264571
-0.00369629
-0.00371632
-0.00430446
-0.00447667
-0.00433808
-0.00437922
-0.00391526
-0.00329043
-0.00237155
-0.00109979
-0.000242291
4.77083e-06
-3.5747e-05
-0.000308458
-0.00132919
-0.00137816
-0.00170831
-0.00158117
-0.00276334
-0.00265002
-0.0036984
-0.003724
-0.00429804
-0.0044916
-0.00433876
-0.00440707
-0.00395149
-0.00337231
-0.00251439
-0.00135591
-0.000592231
5.92702e-06
-3.94257e-05
-0.000303191
-0.00133281
-0.00138017
-0.00171228
-0.00158605
-0.00277246
-0.00265612
-0.00369832
-0.00373506
-0.00428854
-0.00451071
-0.00433844
-0.00443931
-0.00399523
-0.00345956
-0.00267377
-0.00161848
-0.000942158
7.41002e-06
-4.32704e-05
-0.000297794
-0.00133638
-0.00138251
-0.00171593
-0.00159163
-0.00278058
-0.00266441
-0.00369565
-0.00374987
-0.00427591
-0.00453388
-0.00433842
-0.00447417
-0.00404928
-0.00355179
-0.00284914
-0.00188862
-0.00129015
9.24687e-06
-4.72661e-05
-0.000292279
-0.00133983
-0.00138528
-0.00171915
-0.00159811
-0.00278743
-0.00267529
-0.00369002
-0.00376866
-0.00426024
-0.00456059
-0.00434064
-0.00450964
-0.00411577
-0.00364986
-0.00303833
-0.00216798
-0.00163536
1.14583e-05
-5.1386e-05
-0.000286668
-0.00134307
-0.00138861
-0.00172177
-0.00160571
-0.00279267
-0.00268916
-0.00368123
-0.00379132
-0.0042415
-0.00458993
-0.00434745
-0.00454417
-0.00419602
-0.00375542
-0.00323809
-0.00245784
-0.00197786
1.40574e-05
-5.5583e-05
-0.000280997
-0.00134598
-0.00139263
-0.00172361
-0.00161469
-0.00279601
-0.00270628
-0.00366925
-0.00381762
-0.00422252
-0.00462025
-0.00436106
-0.00457737
-0.00429057
-0.00387106
-0.00344513
-0.00275836
-0.00231853
1.70426e-05
-5.97756e-05
-0.000275319
-0.00134839
-0.00139755
-0.00172446
-0.00162534
-0.00279721
-0.00272683
-0.00365425
-0.00384719
-0.00420379
-0.00464937
-0.0043832
-0.00460969
-0.00439889
-0.00400036
-0.0036574
-0.00306843
-0.00265894
2.03918e-05
-6.38434e-05
-0.000269695
-0.00135014
-0.00140357
-0.00172411
-0.00163787
-0.00279619
-0.00275076
-0.00363664
-0.00387922
-0.00418671
-0.00467553
-0.00441513
-0.00464246
-0.00451939
-0.00414717
-0.00387507
-0.00338625
-0.00300112
2.40629e-05
-6.76216e-05
-0.000264205
-0.00135105
-0.00141093
-0.00172242
-0.00165239
-0.00279299
-0.00277785
-0.0036171
-0.00391248
-0.00417252
-0.00469775
-0.00445737
-0.00467791
-0.00465006
-0.00431471
-0.0041003
-0.00370994
-0.00334731
2.79784e-05
-7.08806e-05
-0.000258964
-0.00135088
-0.00141982
-0.0017193
-0.001669
-0.00278775
-0.00280765
-0.0035965
-0.00394554
-0.00416242
-0.00471557
-0.00450934
-0.00471823
-0.00478894
-0.00450488
-0.00433668
-0.00403858
-0.00369986
3.20389e-05
-7.33237e-05
-0.000254074
-0.0013495
-0.00143039
-0.00171481
-0.00168756
-0.002781
-0.00283921
-0.0035762
-0.0039769
-0.00415738
-0.00472894
-0.00457005
-0.00476497
-0.00493345
-0.00471817
-0.00458923
-0.00437535
-0.00406207
3.60996e-05
-7.45766e-05
-0.000249584
-0.00134683
-0.00144266
-0.00170918
-0.00170765
-0.00277369
-0.00287142
-0.0035573
-0.00400561
-0.00415781
-0.00473814
-0.00463855
-0.00481912
-0.00507769
-0.00494725
-0.00486105
-0.00473435
-0.00444097
3.99232e-05
-7.4253e-05
-0.000245495
-0.00134282
-0.00145662
-0.00170282
-0.00172877
-0.00276646
-0.00290366
-0.00353989
-0.00403143
-0.00416332
-0.00474465
-0.00471399
-0.00488246
-0.00521939
-0.00518731
-0.00514439
-0.00509406
-0.00486644
4.32927e-05
-7.19766e-05
-0.000241759
-0.00133748
-0.00147211
-0.00169643
-0.00175014
-0.00275993
-0.00293537
-0.00352381
-0.00405485
-0.00417398
-0.00474838
-0.00479554
-0.00495949
-0.00536928
-0.00544236
-0.00544337
-0.00546002
-0.00529823
4.5986e-05
-6.73261e-05
-0.000238258
-0.001331
-0.00148882
-0.00169071
-0.00177098
-0.00275455
-0.00296628
-0.00350896
-0.00407569
-0.00419199
-0.00475171
-0.00488543
-0.00505864
-0.00552538
-0.00570624
-0.00575758
-0.00583046
-0.00572812
4.77422e-05
-5.99898e-05
-0.000234621
-0.00132381
-0.00150618
-0.00168658
-0.00179109
-0.00275005
-0.00299707
-0.00349558
-0.00409441
-0.00422175
-0.00476212
-0.00498212
-0.00517672
-0.00568693
-0.00597375
-0.00608283
-0.00620123
-0.00615106
4.8341e-05
-4.97019e-05
-0.000230304
-0.00131651
-0.00152347
-0.00168461
-0.00181063
-0.00274609
-0.00302887
-0.00348543
-0.00411383
-0.00426441
-0.0047801
-0.00507978
-0.00530897
-0.00585512
-0.00624253
-0.00641549
-0.00657117
-0.00656184
4.75952e-05
-3.64352e-05
-0.00022474
-0.00130956
-0.00154028
-0.00168497
-0.00183042
-0.00274238
-0.00306306
-0.00348282
-0.00413459
-0.00431722
-0.00480543
-0.00517503
-0.00545133
-0.0060301
-0.0065113
-0.00675384
-0.00694072
-0.00695923
4.53777e-05
-2.04349e-05
-0.000219652
-0.00130341
-0.00155651
-0.00168745
-0.00185206
-0.00273895
-0.00310107
-0.00349002
-0.00415332
-0.004376
-0.00483848
-0.00526771
-0.00560052
-0.00621153
-0.00678005
-0.00709779
-0.00731161
-0.00734463
4.16802e-05
-2.02092e-06
-0.000206916
-0.00129814
-0.00157248
-0.00169215
-0.00187766
-0.00273795
-0.00314332
-0.00350598
-0.00416851
-0.004437
-0.0048802
-0.00535921
-0.00575458
-0.00639969
-0.00704949
-0.00744632
-0.00768507
-0.00771984
3.66516e-05
1.80015e-05
-0.000188699
-0.00129299
-0.00158914
-0.0016978
-0.00190983
-0.00274536
-0.00318748
-0.00352861
-0.00418035
-0.00449726
-0.00493136
-0.00545225
-0.00591262
-0.00659423
-0.00731873
-0.00779607
-0.00806053
-0.00808674
3.06423e-05
3.85767e-05
-0.000164289
-0.00128689
-0.00160791
-0.0017059
-0.00195004
-0.00276056
-0.00323035
-0.00355655
-0.00419034
-0.00455523
-0.00499147
-0.00554969
-0.00607467
-0.00679381
-0.00758525
-0.0081428
-0.00843702
-0.00844848
2.40487e-05
5.8636e-05
-0.00013354
-0.00127842
-0.00163109
-0.00171874
-0.00199703
-0.00278194
-0.00327017
-0.00358877
-0.0042019
-0.00461078
-0.00505892
-0.0056531
-0.00624153
-0.00699768
-0.00784678
-0.00848236
-0.00881303
-0.0088084
1.74629e-05
7.70542e-05
-9.73054e-05
-0.00126633
-0.00165986
-0.00173663
-0.00204854
-0.0028094
-0.00330655
-0.00362444
-0.00421824
-0.00466513
-0.00513159
-0.00576166
-0.00641368
-0.00720628
-0.00810242
-0.00881073
-0.00918504
-0.0091678
1.18307e-05
9.26274e-05
-5.1343e-05
-0.00124962
-0.00169427
-0.00175925
-0.00210304
-0.00284365
-0.0033404
-0.00366255
-0.00424124
-0.00472011
-0.00520729
-0.00587303
-0.00659007
-0.00742096
-0.00835348
-0.00912533
-0.00954813
-0.00952529
8.12444e-06
0.000104342
-9.75887e-06
-0.00122727
-0.00173275
-0.00178727
-0.00215911
-0.00288518
-0.00337333
-0.00370112
-0.00427111
-0.00477744
-0.00528478
-0.0059847
-0.00676846
-0.0076426
-0.00860299
-0.00942605
-0.00989758
-0.00987722
7.21211e-06
0.000111902
2.92148e-05
-0.00119893
-0.00177482
-0.00182164
-0.00221528
-0.00293375
-0.00340722
-0.00373803
-0.00430664
-0.00483908
-0.00536438
-0.00609483
-0.00694583
-0.00787003
-0.00885376
-0.00971442
-0.0102297
-0.0102184
9.72446e-06
0.000115485
6.37921e-05
-0.00116536
-0.00181998
-0.00186298
-0.00226977
-0.00298809
-0.00344441
-0.0037724
-0.00434569
-0.00490683
-0.00544793
-0.00620231
-0.00711842
-0.0080999
-0.00910709
-0.00999277
-0.0105426
-0.0105436
1.61431e-05
0.000115664
9.2492e-05
-0.00112865
-0.00186857
-0.00191141
-0.00232017
-0.00304589
-0.00348717
-0.00380481
-0.00438556
-0.0049809
-0.00553809
-0.0063075
-0.0072825
-0.00832762
-0.00936281
-0.0102641
-0.0108367
-0.0108488
2.69667e-05
0.000113662
0.000114149
-0.00109313
-0.0019222
-0.00196649
-0.00236354
-0.00310357
-0.00353694
-0.00383694
-0.00442335
-0.0050591
-0.00563704
-0.00641263
-0.0074355
-0.0085478
-0.00961894
-0.0105313
-0.0111146
-0.0111325
4.27605e-05
0.000111207
0.00012694
-0.00106376
-0.00198221
-0.00202826
-0.00239844
-0.00315696
-0.00359405
-0.00387116
-0.00445651
-0.00513757
-0.00574522
-0.00652101
-0.00757684
-0.00875462
-0.009871
-0.0107957
-0.01138
-0.0113953
6.44241e-05
0.000109306
0.000127298
-0.00104548
-0.00204674
-0.00209709
-0.0024259
-0.00320316
-0.00365825
-0.00391057
-0.00448411
-0.00521191
-0.00586063
-0.00663603
-0.00770868
-0.0089434
-0.0101125
-0.0110559
-0.0116363
-0.01164
9.43178e-05
0.000107875
0.000109542
-0.00103568
-0.00211118
-0.00217625
-0.00245018
-0.00323975
-0.00372778
-0.00395812
-0.00450745
-0.00527775
-0.00597873
-0.00675921
-0.00783441
-0.00911214
-0.0103369
-0.0113085
-0.0118858
-0.0118706
0.000122775
0.000103004
8.66188e-05
-0.00102102
-0.00217358
-0.00226881
-0.00247742
-0.00326504
-0.00379898
-0.00401654
-0.00452975
-0.00533194
-0.00609382
-0.00688972
-0.00795807
-0.00926176
-0.0105387
-0.0115475
-0.0121277
-0.0120907
0.00014559
9.143e-05
6.93546e-05
-0.0010053
-0.0022313
-0.00237402
-0.00251274
-0.00327893
-0.00386718
-0.00408669
-0.00455495
-0.00537254
-0.00619945
-0.00702442
-0.00808287
-0.00939503
-0.0107144
-0.0117657
-0.0123579
-0.0123012
0.000174109
8.13734e-05
1.4769e-05
-0.000996087
-0.00228028
-0.00248998
-0.00256017
-0.00328266
-0.00392635
-0.00416613
-0.00458627
-0.00539943
-0.00628886
-0.00715735
-0.00820976
-0.00951556
-0.0108634
-0.0119573
-0.0125706
-0.0125007
0.000200013
6.63314e-05
-4.42209e-05
-0.000992211
-0.00231878
-0.00261274
-0.00262337
-0.00327995
-0.00397226
-0.0042512
-0.00462718
-0.00541617
-0.00635756
-0.0072808
-0.00833667
-0.00962684
-0.0109877
-0.0121186
-0.0127594
-0.0126853
0.00021823
4.66737e-05
-0.000109049
-0.000994231
-0.00234759
-0.00273877
-0.0027052
-0.00327581
-0.00400155
-0.00433555
-0.00467895
-0.00542714
-0.00640309
-0.00738584
-0.00845737
-0.00973112
-0.0110909
-0.0122492
-0.0129198
-0.0128504
0.000229004
2.35424e-05
-0.000178924
-0.00100656
-0.00236823
-0.00286404
-0.00280587
-0.00327518
-0.00401182
-0.00441132
-0.0047402
-0.00543729
-0.00642533
-0.00746437
-0.00856367
-0.0098273
-0.0111768
-0.0123513
-0.0130493
-0.012991
0.000233077
-1.8652e-06
-0.000261497
-0.00103481
-0.00238246
-0.00298353
-0.00292405
-0.0032841
-0.00400404
-0.00447137
-0.00480732
-0.00545099
-0.00642624
-0.00750977
-0.00864582
-0.00990848
-0.0112451
-0.0124257
-0.0131456
-0.0131023
0.000229032
-2.98711e-05
-0.000357485
-0.00108144
-0.0023932
-0.00309229
-0.00305628
-0.00330769
-0.00398171
-0.00450875
-0.00487161
-0.00546834
-0.00640978
-0.00751921
-0.00869425
-0.00996531
-0.0112922
-0.0124723
-0.0132082
-0.0131813
0.000212523
-6.60893e-05
-0.000458144
-0.00114705
-0.00240338
-0.00318638
-0.00319641
-0.00334937
-0.00395086
-0.00451959
-0.00492296
-0.005486
-0.00638107
-0.00749429
-0.00870216
-0.00998915
-0.0113114
-0.0124874
-0.0132359
-0.0132255
0.000182451
-0.000115384
-0.000565235
-0.00123188
-0.00241933
-0.00326612
-0.00333897
-0.00341106
-0.00391911
-0.00450354
-0.00495202
-0.00549685
-0.00634135
-0.00743723
-0.00866445
-0.00996938
-0.0112921
-0.0124661
-0.0132244
-0.013231
0.000136769
-0.000162984
-0.000679825
-0.00133528
-0.00244665
-0.00333356
-0.00347836
-0.00349061
-0.00389247
-0.00446296
-0.00495073
-0.0054911
-0.00628715
-0.00734906
-0.00857837
-0.00989702
-0.0112247
-0.0124012
-0.0131695
-0.0131947
7.14324e-05
-0.000234837
-0.000791904
-0.00145505
-0.00248899
-0.00339128
-0.00360924
-0.00358374
-0.0038749
-0.00440227
-0.00491428
-0.00545846
-0.00621219
-0.00722829
-0.00844159
-0.00976481
-0.0110995
-0.0122831
-0.0130646
-0.0131107
-1.09012e-05
-0.000309863
-0.000920458
-0.00159245
-0.0025511
-0.00344382
-0.00372843
-0.0036855
-0.00386874
-0.00432676
-0.00484135
-0.00538947
-0.00610715
-0.00707013
-0.0082499
-0.00956499
-0.0109047
-0.0120995
-0.0128999
-0.012973
-0.000114835
-0.000408503
-0.00105338
-0.00174614
-0.00263579
-0.00349601
-0.00383428
-0.0037906
-0.00387439
-0.00424148
-0.00473243
-0.00527645
-0.0059599
-0.00686539
-0.00799613
-0.00928793
-0.0106263
-0.0118347
-0.0126613
-0.0127709
-0.000246252
-0.000527714
-0.00119408
-0.00191335
-0.00274435
-0.00355445
-0.00392845
-0.00389505
-0.00389108
-0.00415076
-0.0045888
-0.00511165
-0.00575721
-0.00660073
-0.00766883
-0.00892054
-0.0102466
-0.0114676
-0.0123284
-0.0124808
-0.00040479
-0.000673661
-0.00134447
-0.00209302
-0.00287717
-0.00362733
-0.00401609
-0.00399637
-0.00391845
-0.00405907
-0.0044138
-0.00489009
-0.00548568
-0.00625966
-0.00725094
-0.00844204
-0.0097391
-0.0109665
-0.0118591
-0.0120667
-0.000589297
-0.000841966
-0.0015175
-0.00228585
-0.00303228
-0.00372084
-0.00410311
-0.0040946
-0.00395833
-0.0039758
-0.00421598
-0.00461189
-0.00513373
-0.00582118
-0.0067156
-0.00782115
-0.00906714
-0.0102869
-0.0112157
-0.0114971
-0.000802138
-0.00103779
-0.00171134
-0.00249137
-0.00320843
-0.00383798
-0.00419544
-0.00418998
-0.00401321
-0.00391666
-0.00401352
-0.00428456
-0.00469309
-0.00526006
-0.00602655
-0.00701321
-0.00817897
-0.00937652
-0.0103496
-0.0107334
-0.0010684
-0.00126507
-0.00191344
-0.00268917
-0.00340221
-0.0039805
-0.00429841
-0.00428488
-0.00407972
-0.00389381
-0.00383334
-0.00392447
-0.0041544
-0.00453633
-0.0051241
-0.00594321
-0.00698575
-0.0081432
-0.00917741
-0.00971397
-0.00139319
-0.00161633
-0.00211888
-0.00287468
-0.00361319
-0.00414257
-0.00441115
-0.00438324
-0.00415626
-0.00390796
-0.00372213
-0.00358777
-0.00354061
-0.00361734
-0.00388919
-0.00444022
-0.00528243
-0.00636093
-0.00749253
-0.00829224
-0.00169581
-0.00187332
-0.00245532
-0.00319589
-0.00386041
-0.00431687
-0.00453103
-0.00448972
-0.00424269
-0.00395125
-0.00371438
-0.00344511
-0.00304368
-0.00255574
-0.00218524
-0.00214057
-0.0025265
-0.00329971
-0.00431195
-0.00531948
-0.00205089
-0.00222926
-0.00282063
-0.00353487
-0.00412436
-0.00449562
-0.00465112
-0.00461138
-0.00436631
-0.00398587
-0.00367753
-0.00357292
-0.00318748
-0.00217965
-0.00107008
-0.000328629
-4.03459e-06
0.000143695
0.000326372
0.00051182
-0.00251166
-0.0026687
-0.00320737
-0.00386611
-0.00437396
-0.00466131
-0.00475694
-0.00470657
-0.00454638
-0.00404326
-0.00296415
-0.00182363
-0.000877596
-0.000127762
0.000517247
0.00117221
0.00189865
0.0026459
0.0032538
0.00339959
-0.00304957
-0.00316459
-0.00363481
-0.00419479
-0.004594
-0.0047755
-0.00482323
-0.00451533
-0.00366461
-0.00266562
-0.00176086
-0.0010316
-0.000429669
0.000216718
0.00103321
0.00201833
0.00308035
0.00406132
0.0047338
0.00477093
-0.0037021
-0.00374514
-0.00406337
-0.00446514
-0.00475835
-0.00461682
-0.00410566
-0.00349602
-0.00287499
-0.00226004
-0.0016452
-0.000968356
-0.000181394
0.000749836
0.00182687
0.00300547
0.00419033
0.005231
0.00589225
0.00583455
-0.0045133
-0.00458998
-0.00446873
-0.00432772
-0.00417374
-0.00391501
-0.00356083
-0.00316285
-0.00271181
-0.00215137
-0.00144997
-0.000604124
0.00037067
0.00145326
0.00262969
0.00386704
0.00507907
0.00610686
0.00671864
0.00658429
-0.00523698
-0.00520265
-0.00475007
-0.00422368
-0.00381397
-0.00352317
-0.0032512
-0.00291919
-0.00247319
-0.00186912
-0.00108802
-0.000153269
0.000902094
0.00205336
0.00327776
0.00453095
0.00572834
0.00672351
0.00728945
0.00709628
-0.00579429
-0.0056369
-0.00503885
-0.00429733
-0.003684
-0.00326316
-0.00293896
-0.00258975
-0.00212711
-0.00150379
-0.000706465
0.000252451
0.00134263
0.00253115
0.00378263
0.00504554
0.00623299
0.00720136
0.00772755
0.00748474
-0.0062567
-0.00601983
-0.00531476
-0.00441788
-0.00362311
-0.00304792
-0.00263096
-0.00224204
-0.00177292
-0.00115613
-0.000363419
0.00059931
0.00170545
0.00291729
0.0041891
0.00546027
0.00663948
0.00758375
0.00807411
0.00778847
-0.00665177
-0.00635778
-0.00554283
-0.00452267
-0.00358484
-0.00287655
-0.00236921
-0.00193797
-0.00145973
-0.000848292
-6.37249e-05
0.000897901
0.00201222
0.00323745
0.00452107
0.00579571
0.00696615
0.00788958
0.00835019
0.00803002
-0.00696769
-0.00662108
-0.00573525
-0.00461702
-0.00356852
-0.0027547
-0.00216839
-0.00169289
-0.00119702
-0.000585313
0.000192418
0.00114757
0.00226077
0.00349064
0.00477913
0.00605405
0.00721707
0.00812494
0.0085636
0.00821797
-0.0072034
-0.00682598
-0.00588582
-0.00470087
-0.00357756
-0.00268843
-0.0020381
-0.00151714
-0.000993333
-0.000364923
0.000421446
0.00137844
0.00248839
0.00371282
0.00499724
0.00626684
0.00742117
0.0083162
0.00873845
0.00837421
-0.00735001
-0.00696272
-0.00599862
-0.00478075
-0.00361888
-0.00268928
-0.00200071
-0.00144575
-0.00089515
-0.000246565
0.000557769
0.00153224
0.00265761
0.00389198
0.00517743
0.00644159
0.00758666
0.00847145
0.00888473
0.0085135
0.00832639
0.00327922
-0.00417901
-0.00933427
-0.0103356
-0.00906373
-0.00757926
-0.00654175
-0.00592186
-0.00557976
-0.00541287
-0.00535638
-0.00537545
-0.00545169
-0.00556476
-0.00569142
-0.00581748
-0.00594099
-0.00606383
-0.00618543
-0.00630415
-0.00641998
-0.00653388
-0.0066461
-0.00675595
-0.00686293
-0.00696768
-0.00707148
-0.00717529
-0.00727906
-0.0073821
-0.00748401
-0.00758527
-0.00768668
-0.00778863
-0.00789072
-0.00799219
-0.00809234
-0.00819097
-0.00828819
-0.00838406
-0.00847813
-0.00856979
-0.00865882
-0.0087456
-0.00883049
-0.0089136
-0.00899486
-0.00907423
-0.00915191
-0.00922826
-0.00930371
-0.00937851
-0.00945261
-0.0095257
-0.0095977
-0.00966887
-0.00973973
-0.0098103
-0.00988048
-0.00995002
-0.0100191
-0.0100881
-0.0101572
-0.0102262
-0.0102951
-0.0103639
-0.0104328
-0.0105018
-0.0105707
-0.0106393
-0.0107078
-0.0107763
-0.0108449
-0.0109135
-0.0109819
-0.0110503
-0.0111185
-0.0111869
-0.0112553
-0.0113238
-0.0113921
-0.0114604
-0.0115287
-0.0115971
-0.0116653
-0.0117334
-0.0118015
-0.0118698
-0.0119381
-0.0120062
-0.0120742
-0.0121424
-0.0122108
-0.0122794
-0.0123481
-0.0124168
-0.0124859
-0.0125553
-0.0126251
-0.0126951
-0.0127654
-0.012836
-0.0129069
-0.012978
-0.0130493
-0.0131209
-0.0131927
-0.0132647
-0.0133366
-0.013409
-0.0134813
-0.0135541
-0.0136267
-0.0136998
-0.0137728
-0.0138461
-0.0139194
-0.013993
-0.0140669
-0.0141408
-0.0142149
-0.0142889
-0.0143636
-0.0144382
-0.0145134
-0.0145883
-0.0146638
-0.0147394
-0.0148154
-0.0148916
-0.0149679
-0.0150446
-0.0151213
-0.0151987
-0.0152758
-0.0153537
-0.0154311
-0.0155094
-0.0155875
-0.0156662
-0.015745
-0.0158241
-0.0159037
-0.015983
-0.0160635
-0.0161435
-0.0162246
-0.0163047
-0.016386
-0.0164672
-0.016549
-0.0166309
-0.0167126
-0.0167956
-0.0168779
-0.0169616
-0.0170441
-0.0171282
-0.0172116
-0.0172961
-0.0173806
-0.0174648
-0.0175507
-0.0176355
-0.0177224
-0.0178074
-0.0178944
-0.0179807
-0.0180674
-0.018155
-0.0182414
-0.0183309
-0.0184177
-0.0185077
-0.0185956
-0.0186853
-0.0187756
-0.0188643
-0.0189565
-0.019045
-0.0191384
-0.0192282
-0.0193203
-0.0194125
-0.0195029
-0.0195971
-0.0196866
-0.0197811
-0.0198724
-0.0199642
-0.0200583
-0.0201455
-0.0202412
-0.0203247
-0.0204154
-0.0204957
-0.0205722
-0.0206366
-0.0206945
0.00760201
0.00310779
-0.00409743
-0.00920144
-0.0102581
-0.00902685
-0.00755618
-0.00652557
-0.00591019
-0.00557084
-0.00540562
-0.0053502
-0.00536999
-0.00544677
-0.00556029
-0.00568734
-0.00581374
-0.00593755
-0.00606065
-0.0061825
-0.00630143
-0.00641746
-0.00653155
-0.00664394
-0.00675395
-0.00686108
-0.00696595
-0.00706986
-0.00717377
-0.00727763
-0.00738075
-0.00748273
-0.00758406
-0.00768553
-0.00778754
-0.00788968
-0.0079912
-0.00809139
-0.00819006
-0.00828732
-0.00838323
-0.00847734
-0.00856902
-0.00865808
-0.0087449
-0.00882981
-0.00891295
-0.00899423
-0.00907362
-0.00915133
-0.0092277
-0.00930316
-0.00937799
-0.00945211
-0.00952521
-0.00959723
-0.00966841
-0.00973928
-0.00980987
-0.00988007
-0.00994962
-0.0100187
-0.0100878
-0.0101568
-0.0102258
-0.0102947
-0.0103636
-0.0104325
-0.0105014
-0.0105703
-0.010639
-0.0107075
-0.010776
-0.0108446
-0.0109132
-0.0109817
-0.01105
-0.0111183
-0.0111867
-0.0112551
-0.0113236
-0.0113919
-0.0114602
-0.0115285
-0.0115969
-0.0116651
-0.0117332
-0.0118013
-0.0118696
-0.0119379
-0.012006
-0.0120741
-0.0121422
-0.0122107
-0.0122792
-0.0123479
-0.0124166
-0.0124858
-0.0125552
-0.012625
-0.0126949
-0.0127653
-0.0128358
-0.0129068
-0.0129778
-0.0130492
-0.0131208
-0.0131926
-0.0132646
-0.0133365
-0.0134089
-0.0134812
-0.013554
-0.0136266
-0.0136997
-0.0137727
-0.013846
-0.0139193
-0.0139929
-0.0140668
-0.0141407
-0.0142148
-0.0142888
-0.0143635
-0.0144381
-0.0145133
-0.0145883
-0.0146638
-0.0147393
-0.0148153
-0.0148915
-0.0149678
-0.0150446
-0.0151213
-0.0151986
-0.0152757
-0.0153536
-0.015431
-0.0155094
-0.0155874
-0.0156661
-0.0157449
-0.0158241
-0.0159036
-0.015983
-0.0160634
-0.0161435
-0.0162245
-0.0163046
-0.0163859
-0.0164671
-0.016549
-0.0166308
-0.0167125
-0.0167956
-0.0168778
-0.0169616
-0.017044
-0.0171281
-0.0172116
-0.017296
-0.0173806
-0.0174648
-0.0175507
-0.0176355
-0.0177224
-0.0178073
-0.0178943
-0.0179806
-0.0180674
-0.018155
-0.0182414
-0.0183308
-0.0184177
-0.0185076
-0.0185956
-0.0186853
-0.0187756
-0.0188643
-0.0189565
-0.019045
-0.0191384
-0.0192281
-0.0193203
-0.0194125
-0.0195028
-0.0195971
-0.0196865
-0.0197811
-0.0198723
-0.0199642
-0.0200582
-0.0201455
-0.0202411
-0.0203247
-0.0204154
-0.0204956
-0.0205722
-0.0206365
-0.0206945
0.00683968
0.0029375
-0.0039199
-0.00894982
-0.0101172
-0.00897034
-0.00752505
-0.006502
-0.00589203
-0.00555712
-0.00539517
-0.00534203
-0.00536337
-0.00544119
-0.00555541
-0.00568296
-0.00580976
-0.0059339
-0.0060573
-0.00617942
-0.00629859
-0.00641483
-0.00652911
-0.00664168
-0.00675185
-0.00685914
-0.00696415
-0.00706819
-0.00717221
-0.00727618
-0.00737938
-0.00748145
-0.00758285
-0.00768439
-0.00778646
-0.00788865
-0.00799021
-0.00809045
-0.00818917
-0.00828646
-0.00838241
-0.00847656
-0.00856827
-0.00865736
-0.00874421
-0.00882915
-0.00891231
-0.00899362
-0.00907304
-0.00915076
-0.00922715
-0.00930263
-0.00937748
-0.00945161
-0.00952474
-0.00959677
-0.00966797
-0.00973885
-0.00980945
-0.00987966
-0.00994923
-0.0100184
-0.0100874
-0.0101565
-0.0102255
-0.0102944
-0.0103632
-0.0104322
-0.0105011
-0.01057
-0.0106387
-0.0107073
-0.0107758
-0.0108443
-0.0109129
-0.0109814
-0.0110498
-0.011118
-0.0111865
-0.0112549
-0.0113234
-0.0113916
-0.01146
-0.0115283
-0.0115967
-0.0116649
-0.011733
-0.0118011
-0.0118694
-0.0119377
-0.0120058
-0.0120739
-0.012142
-0.0122105
-0.0122791
-0.0123478
-0.0124165
-0.0124857
-0.012555
-0.0126249
-0.0126948
-0.0127652
-0.0128357
-0.0129066
-0.0129777
-0.0130491
-0.0131207
-0.0131924
-0.0132645
-0.0133364
-0.0134088
-0.0134811
-0.0135539
-0.0136265
-0.0136996
-0.0137726
-0.0138459
-0.0139192
-0.0139928
-0.0140667
-0.0141406
-0.0142147
-0.0142887
-0.0143634
-0.014438
-0.0145132
-0.0145882
-0.0146637
-0.0147392
-0.0148152
-0.0148914
-0.0149678
-0.0150445
-0.0151212
-0.0151986
-0.0152756
-0.0153536
-0.015431
-0.0155093
-0.0155873
-0.0156661
-0.0157449
-0.015824
-0.0159036
-0.0159829
-0.0160634
-0.0161434
-0.0162245
-0.0163045
-0.0163859
-0.0164671
-0.0165489
-0.0166308
-0.0167125
-0.0167955
-0.0168778
-0.0169615
-0.017044
-0.0171281
-0.0172115
-0.017296
-0.0173805
-0.0174647
-0.0175507
-0.0176354
-0.0177223
-0.0178073
-0.0178943
-0.0179806
-0.0180673
-0.0181549
-0.0182414
-0.0183308
-0.0184177
-0.0185076
-0.0185956
-0.0186852
-0.0187756
-0.0188643
-0.0189565
-0.019045
-0.0191383
-0.0192281
-0.0193203
-0.0194124
-0.0195028
-0.019597
-0.0196865
-0.019781
-0.0198723
-0.0199641
-0.0200582
-0.0201455
-0.0202411
-0.0203247
-0.0204154
-0.0204956
-0.0205722
-0.0206365
-0.0206945
0.00611367
0.00278762
-0.00367342
-0.00861507
-0.00991906
-0.0088887
-0.00747965
-0.0064658
-0.00586325
-0.00553559
-0.00537935
-0.00533034
-0.00535452
-0.00543416
-0.00554948
-0.00567772
-0.00580502
-0.00592959
-0.00605336
-0.00617579
-0.00629525
-0.00641174
-0.00652623
-0.006639
-0.00674936
-0.00685684
-0.00696205
-0.00706625
-0.00717042
-0.00727452
-0.00737784
-0.00748001
-0.00758151
-0.00768314
-0.00778529
-0.00788754
-0.00798917
-0.00808946
-0.00818823
-0.00828556
-0.00838155
-0.00847574
-0.00856749
-0.00865661
-0.00874349
-0.00882847
-0.00891165
-0.00899298
-0.00907243
-0.00915018
-0.00922659
-0.00930209
-0.00937695
-0.00945111
-0.00952425
-0.0095963
-0.00966752
-0.00973842
-0.00980903
-0.00987925
-0.00994883
-0.010018
-0.010087
-0.0101561
-0.0102251
-0.010294
-0.0103629
-0.0104318
-0.0105008
-0.0105697
-0.0106385
-0.010707
-0.0107755
-0.0108441
-0.0109127
-0.0109812
-0.0110495
-0.0111178
-0.0111862
-0.0112547
-0.0113231
-0.0113914
-0.0114598
-0.0115281
-0.0115965
-0.0116647
-0.0117328
-0.011801
-0.0118692
-0.0119375
-0.0120057
-0.0120737
-0.0121419
-0.0122104
-0.0122789
-0.0123476
-0.0124163
-0.0124855
-0.0125549
-0.0126247
-0.0126947
-0.012765
-0.0128356
-0.0129065
-0.0129776
-0.0130489
-0.0131206
-0.0131923
-0.0132643
-0.0133363
-0.0134087
-0.013481
-0.0135538
-0.0136264
-0.0136995
-0.0137725
-0.0138458
-0.0139191
-0.0139927
-0.0140666
-0.0141405
-0.0142146
-0.0142887
-0.0143633
-0.014438
-0.0145132
-0.0145881
-0.0146636
-0.0147391
-0.0148151
-0.0148913
-0.0149677
-0.0150444
-0.0151211
-0.0151985
-0.0152756
-0.0153535
-0.0154309
-0.0155092
-0.0155873
-0.015666
-0.0157448
-0.015824
-0.0159035
-0.0159829
-0.0160633
-0.0161434
-0.0162244
-0.0163045
-0.0163858
-0.016467
-0.0165489
-0.0166307
-0.0167124
-0.0167955
-0.0168777
-0.0169615
-0.0170439
-0.017128
-0.0172115
-0.0172959
-0.0173805
-0.0174647
-0.0175506
-0.0176354
-0.0177223
-0.0178072
-0.0178942
-0.0179806
-0.0180673
-0.0181549
-0.0182413
-0.0183308
-0.0184176
-0.0185076
-0.0185955
-0.0186852
-0.0187755
-0.0188642
-0.0189564
-0.0190449
-0.0191383
-0.0192281
-0.0193202
-0.0194124
-0.0195028
-0.019597
-0.0196865
-0.019781
-0.0198723
-0.0199641
-0.0200582
-0.0201454
-0.0202411
-0.0203247
-0.0204153
-0.0204956
-0.0205722
-0.0206365
-0.0206944
0.00541467
0.00262628
-0.00340799
-0.00824895
-0.00969462
-0.00879474
-0.00742646
-0.00642007
-0.00582451
-0.00550563
-0.00535708
-0.00531389
-0.00534227
-0.00542469
-0.00554166
-0.0056709
-0.00579891
-0.00592405
-0.00604829
-0.00617112
-0.00629092
-0.00640772
-0.00652247
-0.00663545
-0.00674605
-0.00685378
-0.00695925
-0.00706371
-0.00716809
-0.00727237
-0.00737585
-0.00747817
-0.00757982
-0.00768158
-0.00778385
-0.00788619
-0.00798789
-0.00808826
-0.00818709
-0.00828449
-0.00838053
-0.00847476
-0.00856656
-0.00865573
-0.00874265
-0.00882767
-0.00891088
-0.00899224
-0.00907172
-0.0091495
-0.00922594
-0.00930148
-0.00937636
-0.00945054
-0.00952369
-0.00959576
-0.009667
-0.00973792
-0.00980855
-0.00987879
-0.00994839
-0.0100176
-0.0100866
-0.0101557
-0.0102247
-0.0102937
-0.0103625
-0.0104315
-0.0105005
-0.0105694
-0.0106381
-0.0107067
-0.0107752
-0.0108438
-0.0109124
-0.0109809
-0.0110493
-0.0111175
-0.011186
-0.0112544
-0.0113229
-0.0113912
-0.0114595
-0.0115278
-0.0115963
-0.0116645
-0.0117326
-0.0118008
-0.011869
-0.0119374
-0.0120055
-0.0120736
-0.0121417
-0.0122102
-0.0122787
-0.0123475
-0.0124162
-0.0124854
-0.0125547
-0.0126246
-0.0126945
-0.0127649
-0.0128354
-0.0129064