/*--------------------------------*- C++ -*----------------------------------*\
| =========                 |                                                 |
| \\      /  F ield         | OpenFOAM: The Open Source CFD Toolbox           |
|  \\    /   O peration     | Version:  v2012                                 |
|   \\  /    A nd           | Website:  www.openfoam.com                      |
|    \\/     M anipulation  |                                                 |
\*---------------------------------------------------------------------------*/
FoamFile
{
    version     2.0;
    format      ascii;
    class       volScalarField;
    location    "4";
    object      p;
}
// * * * * * * * * * * * * * * * * * * * * * * * * * * * * * * * * * * * * * //

dimensions      [0 2 -2 0 0 0 0];


internalField   nonuniform List<scalar> 
17600
(
7.88129e-11
-0.00224698
-0.00285231
-0.00358615
-0.00428073
-0.00449639
-0.00546367
-0.00517184
-0.00577116
-0.00613543
-0.00658119
-0.00671143
-0.00702156
-0.00692985
-0.00682254
-0.00633266
-0.00569262
-0.00426418
-0.00236839
0.00119559
3.08983e-07
-0.00224958
-0.00285071
-0.00358882
-0.00427881
-0.00449771
-0.00546257
-0.00517418
-0.00576521
-0.00613872
-0.00657813
-0.0067177
-0.0070181
-0.00693833
-0.00681789
-0.00635105
-0.00568428
-0.00431471
-0.00235644
0.00091148
-7.12702e-07
-0.00225311
-0.00284805
-0.00359283
-0.00427499
-0.00449922
-0.00546099
-0.00517765
-0.00575855
-0.00614372
-0.00657344
-0.00672619
-0.00701305
-0.00695002
-0.00681196
-0.00637417
-0.00567519
-0.00437438
-0.00235878
0.000512529
-3.86813e-06
-0.00225717
-0.0028456
-0.00359673
-0.00426977
-0.0044999
-0.00545957
-0.0051817
-0.00575165
-0.00614923
-0.00656872
-0.00673543
-0.00700841
-0.0069624
-0.0068071
-0.00639789
-0.00566945
-0.00443316
-0.00239094
0.000118554
-9.16796e-06
-0.00226216
-0.0028432
-0.00360003
-0.00426334
-0.00449986
-0.00545838
-0.00518648
-0.00574439
-0.00615548
-0.0065639
-0.00674555
-0.00700371
-0.00697584
-0.00680217
-0.0064233
-0.00566581
-0.00449391
-0.0024543
-0.000254114
-1.63857e-05
-0.00226827
-0.00284041
-0.00360242
-0.00425593
-0.00449929
-0.00545733
-0.00519202
-0.00573674
-0.00616248
-0.00655881
-0.00675648
-0.00699862
-0.00699041
-0.00679688
-0.00645073
-0.00566472
-0.00455838
-0.00254728
-0.000603293
-2.51503e-05
-0.00227546
-0.00283702
-0.00360367
-0.00424779
-0.00449836
-0.00545629
-0.00519819
-0.00572867
-0.00617004
-0.00655348
-0.00676802
-0.00699334
-0.00700593
-0.00679195
-0.00647969
-0.00566839
-0.00462648
-0.00266801
-0.000933237
-3.50288e-05
-0.00228361
-0.00283298
-0.00360376
-0.00423913
-0.00449718
-0.00545512
-0.00520485
-0.00572018
-0.00617807
-0.00654805
-0.00678012
-0.00698817
-0.00702223
-0.00678827
-0.00650926
-0.00567944
-0.00469704
-0.00281497
-0.00125025
-4.566e-05
-0.00229259
-0.00282832
-0.00360278
-0.00423006
-0.00449583
-0.00545375
-0.0052119
-0.00571127
-0.00618653
-0.00654264
-0.00679274
-0.00698337
-0.00703912
-0.00678668
-0.00653856
-0.0057001
-0.00476931
-0.00298633
-0.00156064
-5.68242e-05
-0.00230227
-0.00282312
-0.00360095
-0.00422067
-0.0044944
-0.00545215
-0.00521928
-0.005702
-0.00619536
-0.00653734
-0.00680578
-0.00697921
-0.00705621
-0.00678806
-0.00656683
-0.005732
-0.00484342
-0.00317937
-0.00186993
-6.84249e-05
-0.00231255
-0.0028175
-0.00359845
-0.004211
-0.00449293
-0.00545034
-0.00522693
-0.00569239
-0.00620449
-0.00653227
-0.00681902
-0.00697606
-0.00707294
-0.0067934
-0.00659363
-0.00577611
-0.00492073
-0.00339039
-0.00218231
-8.04332e-05
-0.00232332
-0.00281155
-0.0035954
-0.00420107
-0.00449143
-0.00544837
-0.00523474
-0.0056825
-0.00621383
-0.00652761
-0.00683217
-0.00697442
-0.00708869
-0.00680366
-0.00661888
-0.0058327
-0.0050037
-0.00361511
-0.00250039
-9.28407e-05
-0.0023345
-0.00280533
-0.00359185
-0.00419093
-0.00448987
-0.00544626
-0.00524262
-0.00567244
-0.0062232
-0.00652357
-0.00684488
-0.00697483
-0.00710297
-0.00681956
-0.00664309
-0.00590118
-0.00509548
-0.00384949
-0.00282517
-0.000105639
-0.00234601
-0.00279892
-0.00358781
-0.00418064
-0.00448821
-0.00544408
-0.00525045
-0.00566233
-0.0062324
-0.00652047
-0.00685677
-0.00697782
-0.00711549
-0.00684151
-0.00666762
-0.00598022
-0.00519909
-0.00409053
-0.00315648
-0.000118819
-0.0023578
-0.00279237
-0.00358323
-0.00417028
-0.00448636
-0.00544191
-0.00525808
-0.00565234
-0.00624116
-0.00651861
-0.00686748
-0.00698385
-0.00712617
-0.00686946
-0.00669449
-0.00606812
-0.00531672
-0.00433654
-0.00349335
-0.000132375
-0.00236979
-0.00278576
-0.00357805
-0.00415996
-0.00448422
-0.00543984
-0.00526532
-0.0056427
-0.0062492
-0.00651831
-0.0068767
-0.00699326
-0.00713544
-0.0069028
-0.00672602
-0.00616369
-0.00544972
-0.00458675
-0.00383431
-0.00014631
-0.00238189
-0.00277916
-0.00357218
-0.00414981
-0.00448166
-0.00543803
-0.00527195
-0.00563368
-0.00625628
-0.00651974
-0.00688408
-0.00700614
-0.00714425
-0.00694057
-0.00676422
-0.00626654
-0.0055985
-0.00484085
-0.00417773
-0.000160637
-0.00239404
-0.00277265
-0.0035655
-0.00413997
-0.00447852
-0.00543667
-0.00527774
-0.00562545
-0.00626219
-0.00652313
-0.00688844
-0.00702212
-0.00715413
-0.00698189
-0.00681046
-0.00637694
-0.00576256
-0.00509882
-0.00452173
-0.000175376
-0.00240611
-0.00276633
-0.00355788
-0.00413064
-0.00447456
-0.00543598
-0.00528249
-0.00561822
-0.00626679
-0.00652861
-0.0068926
-0.00704021
-0.00716659
-0.00702663
-0.00686573
-0.00649541
-0.00594117
-0.00536088
-0.00486407
-0.000190561
-0.00241799
-0.00276033
-0.00354912
-0.00412206
-0.00446958
-0.0054361
-0.00528607
-0.00561198
-0.00627011
-0.00653602
-0.00689655
-0.00705929
-0.00718248
-0.00707525
-0.00693082
-0.00662274
-0.00613396
-0.00562776
-0.00520269
-0.000206242
-0.00242951
-0.00275479
-0.00353902
-0.00411446
-0.00446336
-0.00543719
-0.00528834
-0.00560669
-0.00627246
-0.0065447
-0.00690136
-0.00707867
-0.00720196
-0.00712853
-0.00700639
-0.00675977
-0.00634095
-0.00590088
-0.0055364
-0.000222478
-0.00244047
-0.00274986
-0.00352732
-0.00410813
-0.00445571
-0.00543938
-0.00528931
-0.00560213
-0.00627445
-0.00655366
-0.00690789
-0.0070984
-0.00722502
-0.0071875
-0.00709313
-0.00690721
-0.00656202
-0.00618192
-0.00586545
-0.000239346
-0.00245064
-0.00274578
-0.00351377
-0.00410329
-0.00444647
-0.0054426
-0.00528921
-0.00559788
-0.00627686
-0.00656186
-0.00691627
-0.00711888
-0.00725137
-0.00725312
-0.007192
-0.00706591
-0.00679671
-0.00647249
-0.00619167
-0.000256974
-0.00245965
-0.00274277
-0.00349811
-0.00410017
-0.0044356
-0.00544668
-0.00528839
-0.00559335
-0.00628075
-0.00656843
-0.00692615
-0.00714081
-0.00728033
-0.00732566
-0.00730412
-0.00723714
-0.00704509
-0.00677456
-0.00651853
-0.000275515
-0.00246714
-0.00274107
-0.00348017
-0.00409908
-0.00442323
-0.00545139
-0.00528751
-0.00558713
-0.00628713
-0.0065731
-0.00693706
-0.00716507
-0.00731118
-0.00740444
-0.00742984
-0.00742173
-0.00730796
-0.00709332
-0.00685174
-0.000295141
-0.00247268
-0.00274083
-0.00345982
-0.00409983
-0.00440963
-0.00545608
-0.0052874
-0.00557766
-0.00629617
-0.00657587
-0.00694839
-0.00719293
-0.007344
-0.00748744
-0.00756639
-0.00761388
-0.00758546
-0.00744263
-0.00720137
-0.000316117
-0.00247575
-0.0027423
-0.00343698
-0.00410241
-0.00439518
-0.00545975
-0.00528666
-0.00556442
-0.00630756
-0.00657787
-0.00695845
-0.0072257
-0.00738018
-0.00757334
-0.00771213
-0.00781256
-0.00786454
-0.00779936
-0.00760049
-0.000338715
-0.00247584
-0.00274558
-0.00341177
-0.00410656
-0.00438066
-0.00546119
-0.00529136
-0.00554709
-0.00632066
-0.0065807
-0.00696509
-0.00726374
-0.00742149
-0.00766256
-0.00787568
-0.0080281
-0.00814776
-0.00816437
-0.00801143
-0.000363225
-0.00247248
-0.00275062
-0.00338439
-0.00411176
-0.00436733
-0.00545925
-0.00530202
-0.00552567
-0.00633431
-0.00658644
-0.00696649
-0.00730806
-0.00747627
-0.00775965
-0.00805263
-0.00826046
-0.00843745
-0.00853172
-0.00842489
-0.000389954
-0.00246514
-0.0027573
-0.00335518
-0.00411716
-0.00435638
-0.00545327
-0.0053167
-0.00550103
-0.00634733
-0.0065986
-0.00696929
-0.00736085
-0.00754529
-0.00786088
-0.00823648
-0.00850896
-0.00873471
-0.00889483
-0.00883501
-0.000419159
-0.00245347
-0.00276511
-0.00332488
-0.00412188
-0.00434864
-0.00544306
-0.00533536
-0.00547495
-0.00635926
-0.00662261
-0.0069749
-0.00742009
-0.0076285
-0.00796388
-0.00842107
-0.00877078
-0.0090415
-0.00925309
-0.0092354
-0.000451157
-0.00243727
-0.00277309
-0.0032944
-0.0041253
-0.00434458
-0.0054289
-0.00535807
-0.00545023
-0.00637057
-0.00665797
-0.00698261
-0.00748123
-0.00772624
-0.00807087
-0.00860191
-0.00904055
-0.009359
-0.00960818
-0.00962318
-0.000486106
-0.00241657
-0.00278012
-0.0032642
-0.00412712
-0.00434456
-0.00541165
-0.00538562
-0.00543058
-0.00638116
-0.00670321
-0.00699154
-0.00753905
-0.00783698
-0.00818617
-0.00877704
-0.00931187
-0.00968596
-0.00996224
-0.00999861
-0.00052399
-0.00239183
-0.00278496
-0.00323471
-0.00412707
-0.00434905
-0.00539319
-0.00541965
-0.00541977
-0.00638862
-0.00675585
-0.00700344
-0.00758932
-0.00795748
-0.00831408
-0.0089474
-0.00957914
-0.0100195
-0.0103178
-0.0103636
-0.000564738
-0.00236377
-0.00278648
-0.00320603
-0.00412515
-0.00435856
-0.00537621
-0.00546179
-0.00541695
-0.00638923
-0.00681398
-0.00702148
-0.00763065
-0.00808325
-0.00845797
-0.00911676
-0.0098387
-0.0103556
-0.010676
-0.0107204
-0.000608002
-0.00233331
-0.00278406
-0.00317678
-0.00412201
-0.00437403
-0.00536233
-0.00551181
-0.00542185
-0.00638095
-0.00687479
-0.0070495
-0.00766431
-0.00820927
-0.00861867
-0.00929035
-0.0100894
-0.0106895
-0.0110364
-0.0110711
-0.000653376
-0.00230153
-0.0027772
-0.00314577
-0.00411853
-0.00439771
-0.00535158
-0.00556619
-0.00543532
-0.00636418
-0.00693554
-0.00709074
-0.00769348
-0.00833094
-0.00879403
-0.00947308
-0.0103323
-0.0110162
-0.0113963
-0.0114168
-0.000700337
-0.00226939
-0.00276637
-0.00311273
-0.00411473
-0.00443098
-0.00534341
-0.00562143
-0.00545862
-0.00634004
-0.00699303
-0.00714696
-0.00772266
-0.00844458
-0.00897989
-0.00966816
-0.0105691
-0.0113316
-0.0117523
-0.011758
-0.000748009
-0.00223764
-0.00275338
-0.00307749
-0.00410975
-0.00447359
-0.00533822
-0.00567512
-0.0054929
-0.00631194
-0.00704453
-0.00721822
-0.00775712
-0.00854799
-0.00917039
-0.00987623
-0.0108024
-0.0116332
-0.0121004
-0.0120944
-0.000795519
-0.0022068
-0.00274023
-0.00304134
-0.00410237
-0.0045244
-0.00533715
-0.00572547
-0.00553823
-0.00628346
-0.00708712
-0.00730241
-0.00780193
-0.00864113
-0.00935877
-0.0100949
-0.0110348
-0.0119206
-0.0124371
-0.0124253
-0.000842177
-0.00217725
-0.00272863
-0.0030064
-0.00409145
-0.00458214
-0.00534191
-0.00577104
-0.00559353
-0.00625866
-0.00711798
-0.00739512
-0.00786086
-0.00872666
-0.00953905
-0.0103196
-0.011268
-0.0121945
-0.0127599
-0.0127495
-0.000887386
-0.00214901
-0.00271995
-0.00297495
-0.00407678
-0.0046458
-0.00535354
-0.00580998
-0.00565678
-0.00624168
-0.00713695
-0.00749081
-0.00793552
-0.00880945
-0.00970792
-0.010545
-0.0115025
-0.0124567
-0.013067
-0.0130649
-0.000930751
-0.0021214
-0.00271545
-0.00295019
-0.0040593
-0.0047138
-0.00537163
-0.0058409
-0.00572506
-0.00623564
-0.00714621
-0.00758404
-0.00802451
-0.00889442
-0.00986535
-0.0107666
-0.0117369
-0.0127083
-0.0133571
-0.0133688
-0.000971954
-0.00209329
-0.00271495
-0.00293638
-0.00404075
-0.00478659
-0.00539601
-0.00586371
-0.00579526
-0.00624244
-0.00714907
-0.00767031
-0.00812372
-0.00898458
-0.0100132
-0.0109809
-0.0119691
-0.0129498
-0.0136286
-0.0136575
-0.00101066
-0.0020627
-0.00271982
-0.00293859
-0.00402257
-0.00485114
-0.0054265
-0.00587908
-0.00586367
-0.00626264
-0.00714972
-0.00774671
-0.00822833
-0.00908066
-0.0101538
-0.0111855
-0.0121964
-0.0131808
-0.0138805
-0.0139276
-0.00104609
-0.00202838
-0.00273203
-0.0029614
-0.00400592
-0.00490666
-0.00546258
-0.00588819
-0.00592587
-0.00629474
-0.00715249
-0.00781246
-0.00833342
-0.00918146
-0.0102882
-0.0113789
-0.0124163
-0.0134009
-0.0141123
-0.0141763
-0.00107792
-0.0019924
-0.00275301
-0.00300068
-0.00399204
-0.00495391
-0.00550566
-0.00589445
-0.00597823
-0.00633503
-0.00716084
-0.00786906
-0.00843495
-0.0092844
-0.0104162
-0.0115601
-0.0126267
-0.0136101
-0.0143244
-0.0144014
-0.00111335
-0.00195109
-0.00277031
-0.00304939
-0.00398207
-0.00499664
-0.00555886
-0.00590409
-0.0060198
-0.006379
-0.00717642
-0.00791928
-0.00853009
-0.00938586
-0.0105371
-0.0117285
-0.0128266
-0.0138087
-0.0145181
-0.0146019
-0.00115311
-0.00192969
-0.00277857
-0.00310587
-0.00397701
-0.00503385
-0.00562081
-0.00592146
-0.00605111
-0.00642119
-0.00719842
-0.0079658
-0.00861679
-0.00948151
-0.0106483
-0.0118828
-0.0130143
-0.0139965
-0.0146946
-0.0147774
-0.00118858
-0.00190379
-0.00280722
-0.00317468
-0.00397795
-0.00506048
-0.00568741
-0.00594876
-0.00607424
-0.00645569
-0.00722387
-0.00801089
-0.00869484
-0.00956758
-0.0107465
-0.0120203
-0.0131876
-0.0141728
-0.014855
-0.0149286
-0.00122757
-0.00188983
-0.00283087
-0.00325239
-0.0039875
-0.00507745
-0.00575512
-0.00598925
-0.00609407
-0.00647957
-0.00724792
-0.00805473
-0.00876546
-0.00964217
-0.0108275
-0.0121372
-0.0133435
-0.014337
-0.0150017
-0.015058
-0.00127656
-0.00188039
-0.0028475
-0.00333697
-0.00401102
-0.0050875
-0.00582068
-0.00604293
-0.00611488
-0.0064916
-0.00726413
-0.0080944
-0.00882993
-0.00970588
-0.0108893
-0.0122291
-0.0134771
-0.0144869
-0.0151365
-0.0151696
-0.00133241
-0.00187939
-0.00285822
-0.00342773
-0.00405044
-0.00509243
-0.00587924
-0.00610773
-0.00614129
-0.00649289
-0.00726658
-0.00812497
-0.00888804
-0.00976021
-0.0109317
-0.0122907
-0.0135804
-0.0146164
-0.015258
-0.015266
-0.00139287
-0.00188855
-0.00287511
-0.00352321
-0.00410607
-0.00509456
-0.00592621
-0.00618009
-0.00617755
-0.00648633
-0.00725092
-0.00813984
-0.00893638
-0.00980575
-0.0109553
-0.0123191
-0.0136461
-0.0147167
-0.0153618
-0.0153484
-0.0014584
-0.00190892
-0.00289753
-0.0036228
-0.00417948
-0.00509867
-0.0059584
-0.00625378
-0.00622515
-0.00647619
-0.0072151
-0.00813206
-0.00896852
-0.00984052
-0.0109616
-0.0123147
-0.0136691
-0.0147774
-0.0154393
-0.0154143
-0.00153332
-0.00194402
-0.0029213
-0.00372373
-0.00427119
-0.00511036
-0.00597654
-0.00632219
-0.006283
-0.00646762
-0.00716027
-0.00809509
-0.00897532
-0.00985782
-0.0109495
-0.0122785
-0.0136465
-0.0147903
-0.0154801
-0.0154563
-0.00161845
-0.00199315
-0.00295114
-0.0038247
-0.00437979
-0.00513435
-0.00598286
-0.00637895
-0.00634659
-0.00646458
-0.00709076
-0.00802538
-0.00894788
-0.00984898
-0.0109154
-0.0122113
-0.0135777
-0.014751
-0.0154735
-0.0154647
-0.00171505
-0.00205682
-0.00299075
-0.00392463
-0.00450197
-0.00517452
-0.00598171
-0.00642024
-0.00640979
-0.00646845
-0.0070117
-0.00792173
-0.00887748
-0.00980376
-0.0108524
-0.0121111
-0.0134624
-0.0146557
-0.0154125
-0.0154288
-0.00182453
-0.00214435
-0.00303904
-0.00402371
-0.00463522
-0.00523437
-0.00597945
-0.00644499
-0.00646573
-0.00647603
-0.00692537
-0.00778477
-0.00875665
-0.00971015
-0.0107492
-0.011971
-0.0132974
-0.0145002
-0.0152894
-0.0153382
-0.00194528
-0.00224495
-0.00311164
-0.00412377
-0.00477664
-0.00531501
-0.00598142
-0.00645315
-0.00650754
-0.00648212
-0.00683314
-0.00761784
-0.00858251
-0.00955762
-0.010593
-0.0117808
-0.0130764
-0.0142792
-0.015098
-0.0151869
-0.00208203
-0.00237044
-0.00320128
-0.00422645
-0.00492385
-0.00541681
-0.00599386
-0.00644769
-0.00653089
-0.00648061
-0.00673414
-0.00742263
-0.00835213
-0.00933465
-0.0103676
-0.0115252
-0.0127874
-0.013983
-0.0148288
-0.0149608
-0.00224045
-0.0025182
-0.00331157
-0.00433518
-0.0050753
-0.00553854
-0.00602282
-0.00643405
-0.00653344
-0.00646509
-0.00662463
-0.00719879
-0.00806193
-0.00902954
-0.0100539
-0.0111837
-0.0124122
-0.0135947
-0.0144557
-0.0146343
-0.00242138
-0.00269166
-0.00344437
-0.00445531
-0.00522925
-0.00567767
-0.00607412
-0.00642109
-0.00651748
-0.00643198
-0.0065005
-0.00694555
-0.00770939
-0.00863006
-0.00962918
-0.0107272
-0.0119199
-0.0130792
-0.0139563
-0.0141865
-0.00262396
-0.00288442
-0.0036101
-0.00459299
-0.00538635
-0.00583237
-0.00615192
-0.0064196
-0.00649155
-0.00638222
-0.00635991
-0.00666148
-0.00729202
-0.00812299
-0.00906454
-0.0101134
-0.0112614
-0.0124012
-0.0132977
-0.0135903
-0.00285228
-0.00310115
-0.003804
-0.0047495
-0.00554828
-0.00600113
-0.00625533
-0.00643662
-0.00646864
-0.00632795
-0.00620986
-0.00634906
-0.00680474
-0.00749415
-0.00833027
-0.0092957
-0.0103849
-0.0115027
-0.0124296
-0.0128087
-0.00313196
-0.00334655
-0.00401129
-0.00490467
-0.00571599
-0.00618241
-0.00638218
-0.00647536
-0.00645584
-0.00628552
-0.00606731
-0.00601499
-0.00623939
-0.00671271
-0.00737779
-0.00820128
-0.00919195
-0.0102792
-0.011261
-0.0117787
-0.00346716
-0.0037188
-0.00422781
-0.00505492
-0.00589399
-0.00636778
-0.00652375
-0.00653851
-0.00646077
-0.00626432
-0.00597449
-0.0057023
-0.00561085
-0.00574324
-0.00609733
-0.00668041
-0.00748021
-0.00849727
-0.00957641
-0.0103477
-0.00377835
-0.0039785
-0.00457433
-0.00536222
-0.00611109
-0.00655003
-0.00666959
-0.00662672
-0.00648662
-0.00626502
-0.00597308
-0.00558091
-0.00509642
-0.00461946
-0.00432131
-0.00434383
-0.00474631
-0.00547319
-0.00641555
-0.00736966
-0.00414241
-0.00434234
-0.004948
-0.00569109
-0.00634675
-0.00672268
-0.00680815
-0.00674143
-0.00656124
-0.00625164
-0.00593863
-0.00574905
-0.00524769
-0.00419745
-0.00314781
-0.00249836
-0.00221015
-0.00203392
-0.00179365
-0.00155241
-0.00461293
-0.00478943
-0.00534133
-0.00601766
-0.00657041
-0.00687384
-0.00692305
-0.00683694
-0.00670539
-0.00624807
-0.00517069
-0.00396593
-0.00295626
-0.00220958
-0.00160556
-0.00098423
-0.000270126
0.00049822
0.00115543
0.00135388
-0.00515674
-0.00528971
-0.00577654
-0.00634457
-0.00676797
-0.00697037
-0.00699164
-0.00662863
-0.0057765
-0.00483038
-0.00396265
-0.0032161
-0.00256171
-0.00186377
-0.00103712
-7.22773e-05
0.000968722
0.00195041
0.00264946
0.00272539
-0.00581364
-0.00587011
-0.00621009
-0.00661943
-0.00691665
-0.0067749
-0.00625524
-0.00562219
-0.00500143
-0.0044201
-0.00383408
-0.00314962
-0.00231059
-0.00131871
-0.000217008
0.000949636
0.00211315
0.00314597
0.00381991
0.00379035
-0.00663378
-0.00671954
-0.00660755
-0.00646986
-0.00631646
-0.00606668
-0.00571297
-0.00530207
-0.00483935
-0.00428458
-0.00359603
-0.00274395
-0.00174094
-0.000623768
0.000580016
0.00182364
0.00302664
0.00404713
0.00466461
0.00454953
-0.00735862
-0.00732643
-0.00688825
-0.00636752
-0.00595427
-0.00566647
-0.00539665
-0.00505741
-0.00459493
-0.00398164
-0.00320533
-0.00227465
-0.00120719
-2.71862e-05
0.00122597
0.0024965
0.00369759
0.00469068
0.00525884
0.00507709
-0.00791674
-0.00776219
-0.0071749
-0.00644123
-0.00582377
-0.00539896
-0.00507591
-0.0047207
-0.00424242
-0.00360639
-0.00280617
-0.00184824
-0.000750543
0.000458591
0.00173613
0.00301985
0.0042178
0.00518907
0.00571755
0.00548202
-0.00838159
-0.00814579
-0.00744758
-0.00655837
-0.00576026
-0.00517795
-0.00475777
-0.00436397
-0.00388324
-0.00325292
-0.00245084
-0.00148359
-0.000370366
0.000855956
0.00214809
0.00343894
0.00463211
0.00558425
0.00607995
0.00580129
-0.00877788
-0.00848413
-0.00767379
-0.00665911
-0.00571893
-0.00500279
-0.0044888
-0.00405238
-0.0035649
-0.00294014
-0.00214237
-0.00117143
-4.93037e-05
0.00118693
0.00248632
0.00377852
0.00496442
0.00589941
0.00636872
0.00605679
-0.00909422
-0.00874748
-0.00786508
-0.00675033
-0.00569955
-0.00487784
-0.00428298
-0.00380131
-0.00329676
-0.0026723
-0.00188003
-0.000912101
0.000212083
0.00145197
0.00275315
0.00404306
0.00522105
0.006142
0.0065916
0.00625572
-0.00933024
-0.00895248
-0.00801504
-0.00683197
-0.00570581
-0.00480944
-0.00414974
-0.00362073
-0.00308729
-0.00244622
-0.0016453
-0.000675042
0.000446339
0.00168209
0.00297852
0.00426114
0.00542926
0.00633794
0.00677284
0.00641996
-0.0094768
-0.00908939
-0.00812771
-0.00691067
-0.00574567
-0.00480928
-0.00411038
-0.00354598
-0.00298507
-0.00232365
-0.00150325
-0.000512984
0.000625513
0.00186971
0.00316382
0.0044378
0.00559539
0.00649472
0.00692252
0.00656429
0.0051833
0.000520784
-0.00662949
-0.0117439
-0.0127728
-0.0114654
-0.00993347
-0.00888384
-0.00828346
-0.00796363
-0.00780969
-0.00776182
-0.00778134
-0.00783789
-0.00790995
-0.00798375
-0.00805124
-0.00811051
-0.00816452
-0.00821686
-0.00826906
-0.00832121
-0.0083733
-0.00842602
-0.00848117
-0.00854048
-0.00860414
-0.00867088
-0.00873949
-0.00880947
-0.00888048
-0.00895199
-0.00902335
-0.00909417
-0.00916396
-0.00923202
-0.00929787
-0.00936189
-0.00942475
-0.00948666
-0.009547
-0.00960523
-0.00966127
-0.00971567
-0.00976888
-0.00982083
-0.00987111
-0.00991963
-0.00996639
-0.0100118
-0.0100562
-0.0100996
-0.0101416
-0.0101825
-0.0102224
-0.0102617
-0.0103005
-0.0103384
-0.0103753
-0.010411
-0.0104458
-0.0104799
-0.0105134
-0.0105458
-0.0105771
-0.0106074
-0.0106371
-0.0106662
-0.0106946
-0.0107221
-0.010749
-0.0107755
-0.0108015
-0.010827
-0.0108521
-0.0108769
-0.0109015
-0.010926
-0.0109502
-0.0109742
-0.0109979
-0.0110216
-0.0110451
-0.0110686
-0.0110916
-0.0111143
-0.0111366
-0.0111587
-0.0111805
-0.011202
-0.011223
-0.0112439
-0.0112644
-0.0112845
-0.0113042
-0.0113236
-0.0113427
-0.0113614
-0.0113797
-0.0113973
-0.0114148
-0.0114317
-0.0114485
-0.0114647
-0.0114807
-0.0114963
-0.0115117
-0.0115268
-0.0115417
-0.0115565
-0.011571
-0.0115853
-0.0115993
-0.0116132
-0.0116265
-0.0116398
-0.0116525
-0.011665
-0.011677
-0.0116889
-0.0117003
-0.0117115
-0.0117223
-0.0117326
-0.0117425
-0.0117519
-0.0117613
-0.0117699
-0.0117783
-0.0117859
-0.0117935
-0.0118005
-0.0118074
-0.0118138
-0.0118197
-0.0118254
-0.0118305
-0.0118355
-0.0118396
-0.0118438
-0.0118468
-0.0118501
-0.0118525
-0.0118548
-0.0118566
-0.0118578
-0.0118589
-0.0118591
-0.0118598
-0.0118588
-0.0118582
-0.0118562
-0.011855
-0.0118527
-0.0118499
-0.0118468
-0.0118429
-0.0118395
-0.0118339
-0.0118293
-0.0118228
-0.011817
-0.01181
-0.0118024
-0.011795
-0.011786
-0.0117784
-0.0117678
-0.0117588
-0.0117475
-0.0117371
-0.0117255
-0.0117126
-0.0117012
-0.0116864
-0.0116741
-0.0116578
-0.0116436
-0.0116275
-0.0116106
-0.0115948
-0.0115752
-0.0115593
-0.0115387
-0.0115202
-0.0114997
-0.0114772
-0.0114576
-0.011431
-0.0114107
-0.0113824
-0.0113579
-0.01133
-0.0112986
-0.01127
-0.0112342
-0.0111985
-0.0111631
-0.0111187
-0.011093
0.00446492
0.000336719
-0.00655388
-0.0116063
-0.0126902
-0.0114263
-0.00990881
-0.00886637
-0.00827087
-0.00795412
-0.00780208
-0.00775546
-0.00777587
-0.00783309
-0.00790569
-0.00797992
-0.00804778
-0.00810734
-0.0081616
-0.00821416
-0.00826655
-0.00831887
-0.00837111
-0.00842397
-0.00847924
-0.00853866
-0.00860243
-0.00866927
-0.00873797
-0.00880803
-0.00887912
-0.00895069
-0.00902212
-0.009093
-0.00916285
-0.00923097
-0.00929686
-0.00936093
-0.00942383
-0.00948578
-0.00954616
-0.00960442
-0.0096605
-0.00971492
-0.00976816
-0.00982015
-0.00987045
-0.00991899
-0.00996578
-0.0100112
-0.0100557
-0.010099
-0.0101411
-0.010182
-0.0102219
-0.0102613
-0.0103
-0.010338
-0.0103748
-0.0104106
-0.0104454
-0.0104795
-0.010513
-0.0105454
-0.0105767
-0.010607
-0.0106368
-0.0106659
-0.0106943
-0.0107218
-0.0107487
-0.0107752
-0.0108012
-0.0108267
-0.0108518
-0.0108766
-0.0109012
-0.0109257
-0.0109499
-0.010974
-0.0109977
-0.0110214
-0.0110449
-0.0110684
-0.0110914
-0.0111141
-0.0111364
-0.0111585
-0.0111803
-0.0112018
-0.0112228
-0.0112437
-0.0112642
-0.0112844
-0.011304
-0.0113234
-0.0113426
-0.0113613
-0.0113795
-0.0113972
-0.0114146
-0.0114316
-0.0114484
-0.0114646
-0.0114806
-0.0114961
-0.0115116
-0.0115266
-0.0115416
-0.0115563
-0.0115709
-0.0115852
-0.0115992
-0.011613
-0.0116264
-0.0116397
-0.0116524
-0.0116649
-0.0116769
-0.0116888
-0.0117002
-0.0117114
-0.0117222
-0.0117325
-0.0117425
-0.0117518
-0.0117613
-0.0117698
-0.0117783
-0.0117858
-0.0117935
-0.0118004
-0.0118074
-0.0118137
-0.0118197
-0.0118254
-0.0118304
-0.0118355
-0.0118395
-0.0118437
-0.0118467
-0.01185
-0.0118524
-0.0118548
-0.0118565
-0.0118578
-0.0118589
-0.0118591
-0.0118598
-0.0118587
-0.0118581
-0.0118562
-0.011855
-0.0118527
-0.0118498
-0.0118468
-0.0118429
-0.0118395
-0.0118339
-0.0118292
-0.0118227
-0.011817
-0.0118099
-0.0118024
-0.0117949
-0.011786
-0.0117784
-0.0117678
-0.0117588
-0.0117475
-0.011737
-0.0117255
-0.0117125
-0.0117011
-0.0116863
-0.0116741
-0.0116578
-0.0116436
-0.0116275
-0.0116106
-0.0115948
-0.0115752
-0.0115593
-0.0115386
-0.0115202
-0.0114996
-0.0114772
-0.0114576
-0.011431
-0.0114107
-0.0113824
-0.0113579
-0.01133
-0.0112985
-0.01127
-0.0112342
-0.0111985
-0.0111631
-0.0111187
-0.011093
0.00370478
0.000146981
-0.00638727
-0.0113472
-0.0125412
-0.011368
-0.00987756
-0.00884216
-0.00825169
-0.0079394
-0.0077908
-0.00774665
-0.00776878
-0.00782719
-0.00790065
-0.00797554
-0.00804391
-0.00810388
-0.00815847
-0.00821131
-0.00826391
-0.00831643
-0.00836885
-0.00842186
-0.00847726
-0.0085368
-0.00860069
-0.00866763
-0.00873642
-0.00880657
-0.00887774
-0.0089494
-0.0090209
-0.00909184
-0.00916175
-0.00922992
-0.00929587
-0.00935998
-0.00942292
-0.00948491
-0.00954533
-0.00960363
-0.00965974
-0.00971419
-0.00976746
-0.00981948
-0.00986981
-0.00991837
-0.00996519
-0.0100107
-0.0100551
-0.0100985
-0.0101406
-0.0101815
-0.0102214
-0.0102608
-0.0102996
-0.0103375
-0.0103744
-0.0104102
-0.010445
-0.0104792
-0.0105126
-0.0105451
-0.0105764
-0.0106067
-0.0106365
-0.0106656
-0.010694
-0.0107215
-0.0107485
-0.0107749
-0.0108009
-0.0108265
-0.0108516
-0.0108764
-0.010901
-0.0109255
-0.0109497
-0.0109737
-0.0109975
-0.0110212
-0.0110447
-0.0110682
-0.0110912
-0.0111139
-0.0111362
-0.0111583
-0.0111801
-0.0112016
-0.0112227
-0.0112435
-0.0112641
-0.0112842
-0.0113039
-0.0113232
-0.0113424
-0.0113611
-0.0113794
-0.011397
-0.0114145
-0.0114315
-0.0114483
-0.0114644
-0.0114804
-0.011496
-0.0115114
-0.0115265
-0.0115415
-0.0115562
-0.0115707
-0.0115851
-0.0115991
-0.0116129
-0.0116263
-0.0116396
-0.0116523
-0.0116648
-0.0116768
-0.0116887
-0.0117001
-0.0117113
-0.0117222
-0.0117324
-0.0117424
-0.0117517
-0.0117612
-0.0117697
-0.0117782
-0.0117857
-0.0117934
-0.0118004
-0.0118073
-0.0118136
-0.0118196
-0.0118253
-0.0118303
-0.0118354
-0.0118394
-0.0118437
-0.0118467
-0.01185
-0.0118523
-0.0118547
-0.0118565
-0.0118577
-0.0118588
-0.011859
-0.0118597
-0.0118587
-0.0118581
-0.0118561
-0.0118549
-0.0118526
-0.0118498
-0.0118467
-0.0118428
-0.0118394
-0.0118339
-0.0118292
-0.0118227
-0.0118169
-0.0118099
-0.0118023
-0.0117949
-0.0117859
-0.0117783
-0.0117678
-0.0117588
-0.0117475
-0.011737
-0.0117255
-0.0117125
-0.0117011
-0.0116863
-0.011674
-0.0116578
-0.0116435
-0.0116275
-0.0116106
-0.0115948
-0.0115752
-0.0115592
-0.0115386
-0.0115201
-0.0114996
-0.0114772
-0.0114576
-0.011431
-0.0114106
-0.0113824
-0.0113579
-0.0113299
-0.0112985
-0.01127
-0.0112342
-0.0111985
-0.011163
-0.0111187
-0.011093
0.00298535
-2.1692e-05
-0.006153
-0.0110046
-0.0123338
-0.0112853
-0.00983344
-0.00880598
-0.00822178
-0.00791638
-0.00777356
-0.00773363
-0.00775864
-0.00781897
-0.00789377
-0.00796965
-0.00803881
-0.00809944
-0.00815459
-0.00820785
-0.00826078
-0.00831356
-0.00836621
-0.00841944
-0.00847502
-0.00853472
-0.00859874
-0.0086658
-0.0087347
-0.00880495
-0.00887623
-0.00894798
-0.00901957
-0.00909058
-0.00916056
-0.00922879
-0.00929481
-0.00935898
-0.00942197
-0.00948401
-0.00954446
-0.0096028
-0.00965894
-0.00971343
-0.00976673
-0.00981878
-0.00986914
-0.00991773
-0.00996457
-0.0100101
-0.0100546
-0.010098
-0.0101401
-0.010181
-0.0102209
-0.0102603
-0.0102992
-0.0103371
-0.010374
-0.0104098
-0.0104446
-0.0104788
-0.0105123
-0.0105447
-0.010576
-0.0106064
-0.0106362
-0.0106653
-0.0106937
-0.0107212
-0.0107482
-0.0107746
-0.0108006
-0.0108262
-0.0108513
-0.0108761
-0.0109007
-0.0109252
-0.0109495
-0.0109735
-0.0109973
-0.0110209
-0.0110445
-0.011068
-0.011091
-0.0111137
-0.011136
-0.0111582
-0.0111799
-0.0112014
-0.0112225
-0.0112433
-0.0112639
-0.011284
-0.0113037
-0.0113231
-0.0113423
-0.011361
-0.0113793
-0.0113969
-0.0114144
-0.0114313
-0.0114481
-0.0114643
-0.0114803
-0.0114959
-0.0115113
-0.0115264
-0.0115414
-0.0115561
-0.0115706
-0.011585
-0.011599
-0.0116128
-0.0116262
-0.0116395
-0.0116522
-0.0116647
-0.0116767
-0.0116886
-0.0117
-0.0117112
-0.0117221
-0.0117323
-0.0117423
-0.0117517
-0.0117611
-0.0117696
-0.0117781
-0.0117857
-0.0117933
-0.0118003
-0.0118072
-0.0118136
-0.0118195
-0.0118252
-0.0118303
-0.0118353
-0.0118394
-0.0118436
-0.0118466
-0.0118499
-0.0118523
-0.0118547
-0.0118564
-0.0118577
-0.0118588
-0.011859
-0.0118597
-0.0118586
-0.011858
-0.0118561
-0.0118549
-0.0118526
-0.0118497
-0.0118467
-0.0118428
-0.0118394
-0.0118338
-0.0118291
-0.0118226
-0.0118169
-0.0118098
-0.0118023
-0.0117949
-0.0117859
-0.0117783
-0.0117677
-0.0117587
-0.0117474
-0.011737
-0.0117254
-0.0117125
-0.0117011
-0.0116863
-0.011674
-0.0116577
-0.0116435
-0.0116274
-0.0116105
-0.0115947
-0.0115751
-0.0115592
-0.0115386
-0.0115201
-0.0114996
-0.0114771
-0.0114575
-0.011431
-0.0114106
-0.0113824
-0.0113578
-0.0113299
-0.0112985
-0.01127
-0.0112342
-0.0111985
-0.011163
-0.0111186
-0.0110929
0.00229951
-0.000197438
-0.00589945
-0.0106319
-0.0121007
-0.0111912
-0.00978276
-0.0087609
-0.00818179
-0.00788442
-0.00774919
-0.00771505
-0.00774412
-0.00780721
-0.00788393
-0.00796125
-0.00803159
-0.00809323
-0.00814924
-0.00820318
-0.0082566
-0.00830977
-0.00836276
-0.00841631
-0.00847217
-0.00853209
-0.0085963
-0.00866351
-0.00873255
-0.00880293
-0.00887434
-0.00894623
-0.00901793
-0.00908904
-0.00915909
-0.00922741
-0.00929353
-0.00935778
-0.00942084
-0.00948293
-0.00954344
-0.00960182
-0.00965801
-0.00971254
-0.00976588
-0.00981796
-0.00986835
-0.00991697
-0.00996385
-0.0100094
-0.0100539
-0.0100973
-0.0101395
-0.0101804
-0.0102204
-0.0102598
-0.0102986
-0.0103366
-0.0103735
-0.0104093
-0.0104442
-0.0104783
-0.0105119
-0.0105443
-0.0105757
-0.010606
-0.0106358
-0.0106649
-0.0106934
-0.0107209
-0.0107478
-0.0107743
-0.0108003
-0.0108259
-0.010851
-0.0108759
-0.0109005
-0.010925
-0.0109492
-0.0109733
-0.010997
-0.0110207
-0.0110443
-0.0110678
-0.0110908
-0.0111135
-0.0111358
-0.011158
-0.0111798
-0.0112012
-0.0112223
-0.0112432
-0.0112637
-0.0112839
-0.0113036
-0.0113229
-0.0113421
-0.0113608
-0.0113791
-0.0113967
-0.0114142
-0.0114312
-0.011448
-0.0114642
-0.0114802
-0.0114958
-0.0115112
-0.0115263
-0.0115412
-0.011556
-0.0115705
-0.0115849
-0.0115989
-0.0116127
-0.0116261
-0.0116394
-0.0116521
-0.0116646
-0.0116766
-0.0116885
-0.0116999
-0.0117111
-0.011722
-0.0117322