/*--------------------------------*- C++ -*----------------------------------*\
| =========                 |                                                 |
| \\      /  F ield         | OpenFOAM: The Open Source CFD Toolbox           |
|  \\    /   O peration     | Version:  v2012                                 |
|   \\  /    A nd           | Website:  www.openfoam.com                      |
|    \\/     M anipulation  |                                                 |
\*---------------------------------------------------------------------------*/
FoamFile
{
    version     2.0;
    format      ascii;
    class       surfaceScalarField;
    location    "4";
    object      phi;
}
// * * * * * * * * * * * * * * * * * * * * * * * * * * * * * * * * * * * * * //

dimensions      [0 3 -1 0 0 0 0];
oriented        oriented;


internalField   nonuniform List<scalar> 
34900
(
1.17267e-06
4.37394e-07
1.15295e-06
-6.29771e-07
1.16787e-06
5.11536e-07
1.14629e-06
-2.29546e-07
1.15697e-06
2.1913e-08
1.14714e-06
6.79244e-08
1.15421e-06
-8.08798e-08
1.14555e-06
-2.69282e-08
1.15513e-06
-5.51743e-09
1.14789e-06
-1.63604e-08
1.1578e-06
4.27606e-08
1.14971e-06
1.24536e-08
1.15911e-06
7.48008e-08
1.14922e-06
2.50946e-08
1.15786e-06
8.15051e-08
1.14599e-06
2.69528e-08
1.1537e-06
8.288e-08
1.14027e-06
2.57608e-08
1.14267e-06
9.30167e-08
3.23275e-08
1.10641e-06
1.22485e-06
4.36801e-07
1.20531e-06
-6.1023e-07
1.21719e-06
4.99663e-07
1.19868e-06
-2.11037e-07
1.20721e-06
1.33839e-08
1.20241e-06
7.27185e-08
1.20744e-06
-8.59068e-08
1.202e-06
-2.14914e-08
1.20847e-06
-1.19812e-08
1.20576e-06
-1.36582e-08
1.21052e-06
3.80043e-08
1.2095e-06
1.34711e-08
1.21073e-06
7.35721e-08
1.21152e-06
2.43102e-08
1.2076e-06
8.54209e-08
1.21175e-06
2.28075e-08
1.20029e-06
9.43318e-08
1.2096e-06
1.64588e-08
1.18484e-06
1.17775e-07
2.73939e-08
1.18977e-06
1.27969e-06
4.39898e-07
1.2603e-06
-5.90846e-07
1.26794e-06
4.92026e-07
1.25541e-06
-1.98504e-07
1.25874e-06
1.0054e-08
1.26139e-06
7.00667e-08
1.26196e-06
-8.6483e-08
1.26281e-06
-2.23357e-08
1.26321e-06
-1.23842e-08
1.26757e-06
-1.80223e-08
1.26535e-06
4.02269e-08
1.27189e-06
6.92889e-09
1.26623e-06
7.92395e-08
1.27377e-06
1.67712e-08
1.26494e-06
9.4248e-08
1.27232e-06
1.54261e-08
1.26169e-06
1.04959e-07
1.26605e-06
1.2098e-08
1.25439e-06
1.29436e-07
4.04269e-08
1.24136e-06
1.33829e-06
4.45714e-07
1.3203e-06
-5.72861e-07
1.32312e-06
4.89207e-07
1.31835e-06
-1.93729e-07
1.31506e-06
1.33403e-08
1.32433e-06
6.07957e-08
1.32086e-06
-8.30064e-08
1.32603e-06
-2.75131e-08
1.32231e-06
-8.666e-09
1.33012e-06
-2.58274e-08
1.32538e-06
4.49674e-08
1.33337e-06
-1.0644e-09
1.32813e-06
8.44772e-08
1.33439e-06
1.05147e-08
1.32934e-06
9.9303e-08
1.33254e-06
1.22237e-08
1.32844e-06
1.09056e-07
1.32655e-06
1.3986e-08
1.32237e-06
1.3362e-07
5.73406e-08
1.30546e-06
1.40152e-06
4.52551e-07
1.38578e-06
-5.57129e-07
1.38483e-06
4.90164e-07
1.38684e-06
-1.95745e-07
1.37868e-06
2.14993e-08
1.39112e-06
4.83586e-08
1.38614e-06
-7.80234e-08
1.39197e-06
-3.33454e-08
1.38765e-06
-4.3498e-09
1.3947e-06
-3.28739e-08
1.39134e-06
4.83247e-08
1.39713e-06
-6.85527e-09
1.39505e-06
8.6561e-08
1.39849e-06
7.07852e-09
1.39704e-06
1.0075e-07
1.39766e-06
1.16007e-08
1.39643e-06
1.10289e-07
1.39248e-06
1.79401e-08
1.39036e-06
1.35735e-07
7.40854e-08
1.37362e-06
1.46971e-06
4.58522e-07
1.45641e-06
-5.43836e-07
1.45374e-06
4.92835e-07
1.45966e-06
-2.01669e-07
1.45004e-06
3.11224e-08
1.46206e-06
3.63359e-08
1.45785e-06
-7.38052e-08
1.46205e-06
-3.75504e-08
1.45896e-06
-1.26237e-09
1.46369e-06
-3.75983e-08
1.46225e-06
4.97614e-08
1.46577e-06
-1.03756e-08
1.46572e-06
8.66158e-08
1.4676e-06
5.19069e-09
1.46769e-06
1.00665e-07
1.46737e-06
1.19212e-08
1.46726e-06
1.10395e-07
1.46218e-06
2.30275e-08
1.46155e-06
1.36357e-07
9.07215e-08
1.44492e-06
1.54256e-06
4.62179e-07
1.53141e-06
-5.32682e-07
1.52904e-06
4.95201e-07
1.53585e-06
-2.0848e-07
1.52756e-06
3.94105e-08
1.53729e-06
2.66143e-08
1.53442e-06
-7.09387e-08
1.53677e-06
-3.98971e-08
1.53476e-06
7.46904e-10
1.53754e-06
-4.03784e-08
1.537e-06
5.02974e-08
1.53917e-06
-1.25436e-08
1.53983e-06
8.5959e-08
1.54097e-06
4.04529e-09
1.54172e-06
9.99118e-08
1.54073e-06
1.29166e-08
1.54156e-06
1.09564e-07
1.53527e-06
2.93117e-08
1.53603e-06
1.35606e-07
1.06959e-07
1.51979e-06
1.61934e-06
4.6297e-07
1.60987e-06
-5.23219e-07
1.60902e-06
4.96056e-07
1.61478e-06
-2.14245e-07
1.60895e-06
4.52447e-08
1.61621e-06
1.93516e-08
1.61415e-06
-6.88813e-08
1.61536e-06
-4.11018e-08
1.61373e-06
2.37204e-09
1.61533e-06
-4.19712e-08
1.61492e-06
5.07095e-08
1.61628e-06
-1.39118e-08
1.61713e-06
8.51098e-08
1.61769e-06
3.48963e-09
1.61896e-06
9.86369e-08
1.61718e-06
1.47041e-08
1.61895e-06
1.07787e-07
1.6115e-06
3.67653e-08
1.61329e-06
1.33815e-07
1.22272e-07
1.59798e-06
1.69932e-06
4.61219e-07
1.69113e-06
-5.15028e-07
1.69213e-06
4.95061e-07
1.69614e-06
-2.18251e-07
1.69259e-06
4.87951e-08
1.69803e-06
1.39106e-08
1.69617e-06
-6.70211e-08
1.69689e-06
-4.18242e-08
1.69529e-06
3.96674e-09
1.69621e-06
-4.28871e-08
1.69571e-06
5.12061e-08
1.69648e-06
-1.46743e-08
1.69746e-06
8.4129e-08
1.69737e-06
3.57899e-09
1.6992e-06
9.68069e-08
1.6965e-06
1.74018e-08
1.69917e-06
1.05113e-07
1.69071e-06
4.52328e-08
1.69312e-06
1.31402e-07
1.36165e-07
1.67923e-06
1.78224e-06
4.57701e-07
1.77495e-06
-5.07739e-07
1.77766e-06
4.92351e-07
1.77993e-06
-2.20514e-07
1.77804e-06
5.06759e-08
1.78231e-06
9.64207e-09
1.78041e-06
-6.51191e-08
1.78098e-06
-4.23945e-08
1.77944e-06
5.5076e-09
1.77996e-06
-4.34077e-08
1.77949e-06
5.16743e-08
1.77972e-06
-1.49001e-08
1.78094e-06
8.29073e-08
1.78013e-06
4.3882e-09
1.78258e-06
9.43565e-08
1.77892e-06
2.10687e-08
1.78235e-06
1.01675e-07
1.77313e-06
5.4451e-08
1.77568e-06
1.28856e-07
1.48228e-07
1.76362e-06
1.86829e-06
4.53161e-07
1.86155e-06
-5.00998e-07
1.86573e-06
4.88171e-07
1.8665e-06
-2.21286e-07
1.86576e-06
5.14125e-08
1.86924e-06
6.16247e-09
1.86734e-06
-6.32171e-08
1.86785e-06
-4.29097e-08
1.86654e-06
6.81751e-09
1.86682e-06
-4.36857e-08
1.8666e-06
5.18941e-08
1.86633e-06
-1.46296e-08
1.86796e-06
8.12775e-08
1.86639e-06
5.96279e-09
1.86951e-06
9.12339e-08
1.8649e-06
2.56764e-08
1.86887e-06
9.7708e-08
1.85926e-06
6.40586e-08
1.86142e-06
1.267e-07
1.58167e-07
1.85148e-06
1.95792e-06
4.48079e-07
1.9514e-06
-4.94482e-07
1.95686e-06
4.8272e-07
1.95637e-06
-2.208e-07
1.95648e-06
5.13021e-08
1.95932e-06
3.31963e-09
1.95755e-06
-6.14462e-08
1.95799e-06
-4.33477e-08
1.95709e-06
7.7204e-09
1.95718e-06
-4.37789e-08
1.95743e-06
5.16469e-08
1.95668e-06
-1.38839e-08
1.95889e-06
7.90693e-08
1.95655e-06
8.30611e-09
1.96035e-06
8.7432e-08
1.95494e-06
3.10885e-08
1.95912e-06
9.35276e-08
1.94955e-06
7.36306e-08
1.95086e-06
1.25388e-07
1.65857e-07
1.94317e-06
2.0516e-06
4.42665e-07
2.04504e-06
-4.87924e-07
2.05164e-06
4.7613e-07
2.05006e-06
-2.19225e-07
2.0509e-06
5.04637e-08
2.05313e-06
1.08665e-09
2.05162e-06
-5.99352e-08
2.0519e-06
-4.36225e-08
2.05152e-06
8.09225e-09
2.05141e-06
-4.36601e-08
2.05229e-06
5.07629e-08
2.05106e-06
-1.26563e-08
2.05398e-06
7.61505e-08
2.05091e-06
1.13737e-08
2.05533e-06
8.30164e-08
2.04935e-06
3.70618e-08
2.05338e-06
8.95052e-08
2.04427e-06
8.27342e-08
2.04444e-06
1.25223e-07
1.71367e-07
2.03893e-06
2.14971e-06
4.3696e-07
2.1429e-06
-4.81115e-07
2.15054e-06
4.68485e-07
2.14799e-06
-2.16674e-07
2.14954e-06
4.89162e-08
2.15114e-06
-5.11891e-10
2.15001e-06
-5.88018e-08
2.15e-06
-4.36126e-08
2.15023e-06
7.85349e-09
2.14981e-06
-4.32387e-08
2.15144e-06
4.91337e-08
2.1497e-06
-1.09192e-08
2.1534e-06
7.24599e-08
2.1497e-06
1.50645e-08
2.15458e-06
7.8143e-08
2.14837e-06
4.32743e-08
2.15185e-06
8.60216e-08
2.14359e-06
9.09895e-08
2.14249e-06
1.26326e-07
1.74945e-07
2.13891e-06
2.25251e-06
4.30937e-07
2.2453e-06
-4.73899e-07
2.25394e-06
4.59839e-07
2.25049e-06
-2.13221e-07
2.25277e-06
4.66295e-08
2.25369e-06
-1.43103e-09
2.25306e-06
-5.81654e-08
2.25263e-06
-4.31833e-08
2.25353e-06
6.94654e-09
2.25269e-06
-4.23977e-08
2.25512e-06
4.67068e-08
2.25285e-06
-8.65147e-09
2.25729e-06
6.80268e-08
2.25314e-06
1.92086e-08
2.25823e-06
7.30562e-08
2.25213e-06
4.93739e-08
2.25473e-06
8.34166e-08
2.2476e-06
9.81198e-08
2.24529e-06
1.28639e-07
1.76971e-07
2.24326e-06
2.36026e-06
4.24554e-07
2.35251e-06
-4.66149e-07
2.36213e-06
4.50215e-07
2.35781e-06
-2.08898e-07
2.36089e-06
4.35462e-08
2.36107e-06
-1.61284e-09
2.36106e-06
-5.81516e-08
2.36008e-06
-4.22068e-08
2.36171e-06
5.32257e-09
2.36034e-06
-4.10323e-08
2.36357e-06
4.34819e-08
2.36079e-06
-5.87518e-09
2.36584e-06
6.29765e-08
2.36148e-06
2.35657e-08
2.36648e-06
6.80619e-08
2.36082e-06
5.50342e-08
2.3623e-06
8.1931e-08
2.35642e-06
1.04003e-07
2.35311e-06
1.31947e-07
1.779e-07
2.35218e-06
2.47318e-06
4.1777e-07
2.46479e-06
-4.57764e-07
2.4754e-06
4.39607e-07
2.4702e-06
-2.03701e-07
2.47416e-06
3.95891e-08
2.47354e-06
-9.88159e-10
2.47427e-06
-5.88836e-08
2.47264e-06
-4.05762e-08
2.47502e-06
2.94454e-09
2.47307e-06
-3.90826e-08
2.47703e-06
3.95155e-08
2.47385e-06
-2.68879e-09
2.4793e-06
5.75255e-08
2.47503e-06
2.78377e-08
2.4796e-06
6.34835e-08
2.47463e-06
6.00029e-08
2.4749e-06
8.16642e-08
2.47021e-06
1.08698e-07
2.46625e-06
1.35898e-07
1.78207e-07
2.46595e-06
2.59151e-06
4.10553e-07
2.5824e-06
-4.48654e-07
2.59403e-06
4.27975e-07
2.58792e-06
-1.97588e-07
2.59284e-06
3.46668e-08
2.59134e-06
5.19014e-10
2.59292e-06
-6.04717e-08
2.59056e-06
-3.82164e-08
2.59371e-06
-1.97035e-10
2.59118e-06
-3.65571e-08
2.59576e-06
3.49331e-08
2.59236e-06
7.16416e-10
2.59792e-06
5.1958e-08
2.59405e-06
3.17102e-08
2.59793e-06
5.96033e-08
2.5938e-06
6.41382e-08
2.59291e-06
8.25553e-08
2.58918e-06
1.12422e-07
2.585e-06
1.40081e-07
1.78319e-07
2.58489e-06
2.71551e-06
4.02873e-07
2.70559e-06
-4.38737e-07
2.71831e-06
4.15254e-07
2.71122e-06
-1.90497e-07
2.71721e-06
2.868e-08
2.71474e-06
2.98251e-09
2.71727e-06
-6.29987e-08
2.71415e-06
-3.50981e-08
2.71802e-06
-4.06056e-09
2.71501e-06
-3.35521e-08
2.72001e-06
2.99364e-08
2.71666e-06
4.06922e-09
2.72203e-06
4.65831e-08
2.71884e-06
3.49058e-08
2.72183e-06
5.66064e-08
2.71853e-06
6.74366e-08
2.71667e-06
8.4414e-08
2.71364e-06
1.15461e-07
2.70961e-06
1.44108e-07
1.78552e-07
2.70937e-06
2.84544e-06
3.94703e-07
2.83463e-06
-4.2793e-07
2.84853e-06
4.01358e-07
2.84038e-06
-1.82348e-07
2.84753e-06
2.15316e-08
2.84405e-06
6.46196e-09
2.84756e-06
-6.65082e-08
2.84371e-06
-3.12518e-08
2.84818e-06
-8.53278e-09
2.84489e-06
-3.02625e-08
2.85002e-06
2.48065e-08
2.84705e-06
7.04227e-09
2.85195e-06
4.16879e-08
2.84961e-06
3.72394e-08
2.85168e-06
5.45348e-08
2.84908e-06
7.00362e-08
2.84651e-06
8.6987e-08
2.84389e-06
1.18081e-07
2.8403e-06
1.47697e-07
1.79068e-07
2.83979e-06
2.98158e-06
3.86016e-07
2.9698e-06
-4.16148e-07
2.98497e-06
3.86185e-07
2.97569e-06
-1.73061e-07
2.98408e-06
1.3138e-08
2.97956e-06
1.09862e-08
2.98403e-06
-7.09858e-08
2.97957e-06
-2.6787e-08
2.98444e-06
-1.34063e-08
2.98117e-06
-2.69871e-08
2.98609e-06
1.98835e-08
2.98383e-06
9.30662e-09
2.98804e-06
3.7477e-08
2.98661e-06
3.86691e-08
2.98788e-06
5.32616e-08
2.98573e-06
7.21835e-08
2.98269e-06
9.0034e-08
2.98029e-06
1.20475e-07
2.9773e-06
1.50691e-07
1.79872e-07
2.97649e-06
3.12423e-06
3.76789e-07
3.11138e-06
-4.03299e-07
3.12794e-06
3.69625e-07
3.11745e-06
-1.62564e-07
3.12714e-06
3.44349e-09
3.12159e-06
1.65347e-08
3.12695e-06
-7.63408e-08
3.12207e-06
-2.19105e-08
3.12704e-06
-1.83748e-08
3.12416e-06
-2.41068e-08
3.12851e-06
1.55289e-08
3.12723e-06
1.05884e-08
3.13068e-06
3.40259e-08
3.13006e-06
3.92956e-08
3.13079e-06
5.2527e-08
3.12882e-06
7.41525e-08
3.12546e-06
9.34009e-08
3.1231e-06
1.2283e-07
3.1208e-06
1.52993e-07
1.80861e-07
3.11981e-06
3.2737e-06
3.67e-07
3.25969e-06
-3.89286e-07
3.27775e-06
3.51566e-07
3.26599e-06
-1.5081e-07
3.277e-06
-7.56171e-09
3.27051e-06
2.30175e-08
3.27656e-06
-8.23872e-08
3.27159e-06
-1.69428e-08
3.27624e-06
-2.30245e-08
3.2742e-06
-2.20687e-08
3.27764e-06
1.20915e-08
3.27752e-06
1.07091e-08
3.28027e-06
3.1272e-08
3.28027e-06
3.92982e-08
3.28079e-06
5.2012e-08
3.27882e-06
7.61154e-08
3.27509e-06
9.71355e-08
3.27239e-06
1.25527e-07
3.27111e-06
1.54273e-07
1.82036e-07
3.26994e-06
3.4303e-06
3.5663e-07
3.41504e-06
-3.74021e-07
3.43469e-06
3.31914e-07
3.42167e-06
-1.37793e-07
3.43393e-06
-1.98171e-08
3.4267e-06
3.02436e-08
3.43313e-06
-8.8816e-08
3.42852e-06
-1.23341e-08
3.43234e-06
-2.68428e-08
3.43162e-06
-2.13509e-08
3.43385e-06
9.85872e-09
3.43494e-06
9.62444e-09
3.43716e-06
2.90464e-08
3.43762e-06
3.88438e-08
3.43829e-06
5.13369e-08
3.43668e-06
7.77304e-08
3.43199e-06
1.01821e-07
3.42781e-06
1.29711e-07
3.42778e-06
1.54302e-07
1.83201e-07
3.42661e-06
3.59437e-06
3.45668e-07
3.57778e-06
-3.57425e-07
3.59908e-06
3.10609e-07
3.58486e-06
-1.23572e-07
3.59822e-06
-3.31767e-08
3.59055e-06
3.79129e-08
3.59694e-06
-9.52043e-08
3.59322e-06
-8.61491e-09
3.59571e-06
-2.93278e-08
3.59664e-06
-2.22851e-08
3.59763e-06
8.86385e-09
3.5997e-06
7.56162e-09
3.60175e-06
2.69938e-08
3.60247e-06
3.81249e-08
3.60382e-06
4.99902e-08
3.60551e-06
7.60344e-08
3.60631e-06
1.01021e-07
3.6014e-06
1.34627e-07
3.58569e-06
1.70005e-07
1.79873e-07
3.58902e-06
3.76626e-06
3.34112e-07
3.74828e-06
-3.39446e-07
3.77125e-06
2.87644e-07
3.75596e-06
-1.08288e-07
3.77018e-06
-4.73937e-08
3.76248e-06
4.56132e-08
3.76833e-06
-1.01058e-07
3.76601e-06
-6.2919e-09
3.76681e-06
-3.01216e-08
3.76942e-06
-2.48976e-08
3.76955e-06
8.72974e-09
3.77199e-06
5.11895e-09
3.77458e-06
2.44102e-08
3.77545e-06
3.72541e-08
3.77801e-06
4.74338e-08
3.78388e-06
7.01597e-08
3.78943e-06
9.54661e-08
3.79808e-06
1.25982e-07
3.81164e-06
1.56447e-07
2.02278e-07
3.78923e-06
3.94633e-06
3.21973e-07
3.92696e-06
-3.20077e-07
3.9515e-06
2.63102e-07
3.93541e-06
-9.21978e-08
3.95011e-06
-6.20928e-08
3.94292e-06
5.28012e-08
3.94767e-06
-1.05803e-07
3.94722e-06
-5.85108e-09
3.94613e-06
-2.90278e-08
3.95018e-06
-2.89446e-08
3.95005e-06
8.85595e-09
3.95223e-06
2.93603e-09
3.95599e-06
2.06498e-08
3.95802e-06
3.52292e-08
3.95957e-06
4.58791e-08
3.95288e-06
7.68526e-08
3.94349e-06
1.04858e-07
3.93764e-06
1.31829e-07
3.92969e-06
1.64402e-07
1.94744e-07
3.93722e-06
4.13495e-06
3.09275e-07
4.11424e-06
-2.9937e-07
4.14016e-06
2.37183e-07
4.12365e-06
-7.56902e-08
4.13834e-06
-7.67844e-08
4.13229e-06
5.88573e-08
4.13538e-06
-1.08899e-07
4.13713e-06
-7.60073e-09
4.13422e-06
-2.6115e-08
4.13922e-06
-3.39454e-08
4.13948e-06
8.59522e-09
4.141e-06
1.41437e-09
4.14401e-06
1.76461e-08
4.13945e-06
3.97895e-08
4.13207e-06
5.3252e-08
4.13017e-06
7.87602e-08
4.12663e-06
1.08397e-07
4.12199e-06
1.36463e-07
4.11982e-06
1.66573e-07
1.90035e-07
4.12453e-06
4.33251e-06
2.96063e-07
4.31059e-06
-2.77449e-07
4.33755e-06
2.10227e-07
4.32115e-06
-5.92932e-08
4.33527e-06
-9.09055e-08
4.33097e-06
6.31657e-08
4.33202e-06
-1.09957e-07
4.33597e-06
-1.155e-08
4.33165e-06
-2.179e-08
4.33688e-06
-3.91738e-08
4.33748e-06
7.99436e-09
4.33491e-06
3.9835e-09
4.33356e-06
1.89935e-08
4.32908e-06
4.42692e-08
4.32436e-06
5.7974e-08
4.32203e-06
8.10874e-08
4.31942e-06
1.11005e-07
4.31648e-06
1.39404e-07
4.31689e-06
1.66162e-07
1.8619e-07
4.32074e-06
4.53944e-06
2.824e-07
4.51652e-06
-2.54533e-07
4.544e-06
1.82744e-07
4.52837e-06
-4.3664e-08
4.54133e-06
-1.03865e-07
4.53933e-06
6.5174e-08
4.53817e-06
-1.08804e-07
4.544e-06
-1.73784e-08
4.53886e-06
-1.66529e-08
4.5427e-06
-4.30048e-08
4.54171e-06
8.98338e-09
4.53563e-06
1.00575e-08
4.53467e-06
1.99584e-08
4.53103e-06
4.79097e-08
4.52624e-06
6.27652e-08
4.52385e-06
8.34747e-08
4.52204e-06
1.12816e-07
4.52036e-06
1.41079e-07
4.52236e-06
1.64164e-07
1.83359e-07
4.52519e-06
4.75615e-06
2.68369e-07
4.73255e-06
-2.30933e-07
4.75989e-06
1.55401e-07
4.74577e-06
-2.95406e-08
4.75703e-06
-1.15131e-07
4.75767e-06
6.45317e-08
4.75447e-06
-1.05598e-07
4.76152e-06
-2.44284e-08
4.75574e-06
-1.0876e-08
4.75589e-06
-4.31516e-08
4.75406e-06
1.08115e-08
4.74715e-06
1.69638e-08
4.74584e-06
2.12736e-08
4.74326e-06
5.04894e-08
4.73837e-06
6.7654e-08
4.73579e-06
8.60571e-08
4.73464e-06
1.13968e-07
4.73424e-06
1.41478e-07
4.73619e-06
1.62206e-07
1.80588e-07
4.73896e-06
4.98309e-06
2.54073e-07
4.95921e-06
-2.07047e-07
4.98562e-06
1.28984e-07
4.97373e-06
-1.76505e-08
4.98295e-06
-1.24347e-07
4.9863e-06
6.11769e-08
4.98147e-06
-1.00763e-07
4.9886e-06
-3.15627e-08
4.98124e-06
-3.51382e-09
4.9779e-06
-3.98097e-08
4.97667e-06
1.20372e-08
4.96945e-06
2.41925e-08
4.96748e-06
2.32387e-08
4.96587e-06
5.21003e-08
4.96121e-06
7.23144e-08
4.9583e-06
8.89687e-08
4.95767e-06
1.14596e-07
4.95842e-06
1.40724e-07
4.95988e-06
1.60749e-07
1.77476e-07
4.96299e-06
5.22076e-06
2.3963e-07
5.19706e-06
-1.83343e-07
5.2217e-06
1.04338e-07
5.21264e-06
-8.58384e-09
5.21975e-06
-1.31463e-07
5.2256e-06
5.5329e-08
5.21949e-06
-9.46517e-08
5.22525e-06
-3.73221e-08
5.21558e-06
6.15505e-09
5.21034e-06
-3.4574e-08
5.21003e-06
1.23532e-08
5.20306e-06
3.11617e-08
5.20008e-06
2.62129e-08
5.19922e-06
5.29655e-08
5.19513e-06
7.63994e-08
5.1919e-06
9.22061e-08
5.19173e-06
1.14765e-07
5.19317e-06
1.39281e-07
5.19468e-06
1.59237e-07
1.74191e-07
5.19797e-06
5.46966e-06
2.25161e-07
5.44663e-06
-1.60318e-07
5.46879e-06
8.21789e-08
5.4627e-06
-2.49645e-09
5.46811e-06
-1.36865e-07
5.47591e-06
4.75297e-08
5.46857e-06
-8.73185e-08
5.47097e-06
-3.97245e-08
5.46077e-06
1.63609e-08
5.45414e-06
-2.79473e-08
5.45466e-06
1.18363e-08
5.44837e-06
3.74456e-08
5.44422e-06
3.03687e-08
5.44378e-06
5.34036e-08
5.44054e-06
7.96428e-08
5.43714e-06
9.56018e-08
5.43728e-06
1.14628e-07
5.43908e-06
1.37483e-07
5.44103e-06
1.57285e-07
1.70761e-07
5.44446e-06
5.73034e-06
2.10781e-07
5.7085e-06
-1.38475e-07
5.72768e-06
6.29988e-08
5.72417e-06
1.01303e-09
5.72829e-06
-1.40991e-07
5.7364e-06
3.94235e-08
5.72561e-06
-7.65303e-08
5.72676e-06
-4.08777e-08
5.71781e-06
2.53115e-08
5.71011e-06
-2.02413e-08
5.71103e-06
1.09107e-08
5.70578e-06
4.2698e-08
5.70053e-06
3.56223e-08
5.7001e-06
5.38301e-08
5.69786e-06
8.18827e-08
5.6946e-06
9.88599e-08
5.69482e-06
1.14412e-07
5.69684e-06
1.35465e-07
5.69936e-06
1.54765e-07
1.67116e-07
5.703e-06
6.00338e-06
1.96592e-07
5.98322e-06
-1.18318e-07
5.99922e-06
4.69989e-08
5.99717e-06
3.07139e-09
5.99915e-06
-1.42975e-07
6.00531e-06
3.32642e-08
5.99322e-06
-6.44409e-08
5.99463e-06
-4.22862e-08
5.98767e-06
3.22716e-08
5.97877e-06
-1.13479e-08
5.97969e-06
9.99247e-09
5.97568e-06
4.67105e-08
5.96964e-06
4.16598e-08
5.9688e-06
5.46695e-08
5.96757e-06
8.31195e-08
5.96482e-06
1.01608e-07
5.96492e-06
1.14315e-07
5.96708e-06
1.33297e-07
5.97018e-06
1.51672e-07
1.63178e-07
5.97411e-06
6.28941e-06
1.82669e-07
6.27131e-06
-1.0022e-07
6.28432e-06
3.39934e-08
6.28202e-06
5.36851e-09
6.28123e-06
-1.4218e-07
6.28747e-06
2.70211e-08
6.27495e-06
-5.19212e-08
6.2757e-06
-4.3034e-08
6.27069e-06
3.72772e-08
6.26081e-06
-1.46296e-09
6.26124e-06
9.56368e-09
6.25854e-06
4.94023e-08
6.25217e-06
4.80387e-08
6.2506e-06
5.62351e-08
6.25018e-06
8.35398e-08
6.24831e-06
1.0348e-07
6.24819e-06
1.14435e-07
6.25045e-06
1.31036e-07
6.25405e-06
1.48067e-07
1.58886e-07
6.25835e-06
6.58908e-06
1.69063e-07
6.57324e-06
-8.43797e-08
6.58367e-06
2.356e-08
6.58007e-06
8.96916e-09
6.57741e-06
-1.3952e-07
6.58398e-06
2.0452e-08
6.57104e-06
-3.89858e-08
6.57047e-06
-4.24618e-08
6.56735e-06
4.03972e-08
6.55686e-06
9.02573e-09
6.55633e-06
1.00995e-08
6.5549e-06
5.08282e-08
6.54867e-06
5.42712e-08
6.54625e-06
5.86549e-08
6.54633e-06
8.34518e-08
6.54555e-06
1.04263e-07
6.54531e-06
1.14681e-07
6.54759e-06
1.28748e-07
6.5516e-06
1.44059e-07
1.54206e-07
6.55628e-06
6.90305e-06
1.55801e-07
6.88941e-06
-7.07349e-08
6.89795e-06
1.50173e-08
6.893e-06
1.3922e-08
6.88824e-06
-1.34759e-07
6.89492e-06
1.37685e-08
6.88182e-06
-2.58888e-08
6.8796e-06
-4.02411e-08
6.87816e-06
4.18354e-08
6.8676e-06
1.95929e-08
6.86571e-06
1.19862e-08
6.86532e-06
5.12199e-08
6.8597e-06
5.98916e-08
6.85649e-06
6.18585e-08
6.85677e-06
8.31774e-08
6.85705e-06
1.03978e-07
6.85693e-06
1.14802e-07
6.8592e-06
1.26481e-07
6.86348e-06
1.39777e-07
1.4914e-07
6.86855e-06
7.23205e-06
1.42891e-07
7.22034e-06
-5.90288e-08
7.22786e-06
7.4929e-09
7.22175e-06
2.00372e-08
7.2145e-06
-1.27507e-07
7.22082e-06
7.44041e-09
7.20787e-06
-1.29354e-08
7.20381e-06
-3.61766e-08
7.20374e-06
4.19001e-08
7.19365e-06
2.96872e-08
7.19022e-06
1.54189e-08
7.19047e-06
5.09635e-08
7.18581e-06
6.45578e-08
7.18207e-06
6.55956e-08
7.18228e-06
8.29615e-08
7.18342e-06
1.02846e-07
7.18371e-06
1.14505e-07
7.18598e-06
1.24219e-07
7.19041e-06
1.35344e-07
1.43736e-07
7.19581e-06
7.57679e-06
1.30325e-07
7.56675e-06
-4.89879e-08
7.57403e-06
2.15621e-10
7.56725e-06
2.68206e-08
7.55705e-06
-1.17312e-07
7.56234e-06
2.15354e-09
7.54983e-06
-4.30341e-10
7.54388e-06
-3.02294e-08
7.54476e-06
4.10295e-08
7.53562e-06
3.8824e-08
7.5307e-06
2.03416e-08
7.53112e-06
5.05429e-08
7.52757e-06
6.81048e-08
7.52366e-06
6.95081e-08
7.52369e-06
8.29297e-08
7.52537e-06
1.01168e-07
7.52629e-06
1.13584e-07
7.52863e-06
1.21873e-07
7.53313e-06
1.30848e-07
1.3807e-07
7.5388e-06
7.93805e-06
1.18089e-07
7.92929e-06
-4.02312e-08
7.93711e-06
-7.60669e-09
7.93061e-06
3.33229e-08
7.9167e-06
-1.03401e-07
7.92014e-06
-1.29002e-09
7.9084e-06
1.13075e-08
7.90068e-06
-2.25067e-08
7.90196e-06
3.97534e-08
7.89412e-06
4.66591e-08
7.88798e-06
2.64843e-08
7.88811e-06
5.04151e-08
7.88565e-06
7.05664e-08
7.88193e-06
7.32226e-08
7.88178e-06
8.30858e-08
7.88373e-06
9.92095e-08
7.88535e-06
1.11969e-07
7.8879e-06
1.19322e-07
7.89242e-06
1.26328e-07
1.32226e-07
7.89827e-06
8.31658e-06
1.06189e-07
8.30869e-06
-3.23402e-08
8.31875e-06
-1.76675e-08
8.3128e-06
3.92736e-08
8.29405e-06
-8.46479e-08
8.29502e-06
-2.26364e-09
8.28435e-06
2.19759e-08
8.27507e-06
-1.32246e-08
8.27617e-06
3.86529e-08
8.26982e-06
5.30121e-08
8.26286e-06
3.34428e-08
8.26236e-06
5.09136e-08
8.2608e-06
7.21304e-08
8.25758e-06
7.64442e-08
8.25734e-06
8.33246e-08
8.25939e-06
9.71577e-08
8.26165e-06
1.09705e-07
8.26452e-06
1.16454e-07
8.26907e-06
1.21777e-07
1.2628e-07
8.27502e-06
8.71319e-06
9.46627e-08
8.70688e-06
-2.60312e-08
8.71822e-06
-2.9013e-08
8.71302e-06
4.44745e-08
8.68931e-06
-6.09388e-08
8.68782e-06
-7.73745e-10
8.67856e-06
3.12428e-08
8.66795e-06
-2.61516e-09
8.66829e-06
3.83153e-08
8.66341e-06
5.78837e-08
8.65612e-06
4.07398e-08
8.6548e-06
5.22271e-08
8.65389e-06
7.30463e-08
8.65133e-06
7.90057e-08
8.65116e-06
8.34927e-08
8.65321e-06
9.51062e-08
8.65603e-06
1.06887e-07
8.65928e-06
1.13203e-07
8.6639e-06
1.17156e-07
1.2029e-07
8.66989e-06
9.12866e-06
8.36266e-08
9.12604e-06
-2.34122e-08
9.1364e-06
-3.93728e-08
9.12744e-06
5.34308e-08
9.10274e-06
-3.62388e-08
9.09956e-06
2.40267e-09
9.09185e-06
3.89528e-08
9.08025e-06
8.98976e-09
9.07929e-06
3.92725e-08
9.0757e-06
6.14741e-08
9.06855e-06
4.78905e-08
9.06639e-06
5.43907e-08
9.06586e-06
7.35756e-08
9.06402e-06
8.08389e-08
9.06401e-06
8.35058e-08
9.06609e-06
9.30311e-08
9.06935e-06
1.03622e-07
9.07301e-06
1.0954e-07
9.07775e-06
1.12419e-07
1.14286e-07
9.08375e-06
9.56381e-06
7.32735e-08
9.55854e-06
-1.81424e-08
9.5598e-06
-4.06291e-08
9.55676e-06
5.64676e-08
9.53543e-06
-1.49093e-08
9.53127e-06
6.569e-09
9.52503e-06
4.51907e-08
9.51281e-06
2.12052e-08
9.51023e-06
4.1857e-08
9.50754e-06
6.41675e-08
9.50096e-06
5.44709e-08
9.49809e-06
5.72582e-08
9.49771e-06
7.39539e-08
9.49659e-06
8.19558e-08
9.49677e-06
8.33333e-08
9.49896e-06
9.08396e-08
9.50258e-06
9.99959e-08
9.50666e-06
1.05465e-07
9.51155e-06
1.07525e-07
1.0827e-07
9.51757e-06
1.00196e-05
6.37879e-08
1.00058e-05
-4.28575e-09
1.00057e-05
-4.05473e-08
1.00076e-05
5.4525e-08
9.98899e-06
3.72502e-09
9.98378e-06
1.17823e-08
9.97885e-06
5.0113e-08
9.96656e-06
3.34993e-08
9.96218e-06
4.62339e-08
9.95989e-06
6.64625e-08
9.95413e-06
6.02306e-08
9.95083e-06
6.05604e-08
9.95042e-06
7.43617e-08
9.9499e-06
8.24726e-08
9.9503e-06
8.29367e-08
9.95268e-06
8.84633e-08
9.95662e-06
9.60561e-08
9.9611e-06
1.00979e-07
9.9662e-06
1.02428e-07
1.02219e-07
9.97225e-06
1.04971e-05
5.52905e-08
1.04781e-05
1.47088e-08
1.04805e-05
-4.28632e-08
1.04825e-05
5.24554e-08
1.04646e-05
2.16415e-08
1.0458e-05
1.84424e-08
1.04541e-05
5.39799e-08
1.04423e-05
4.52625e-08
1.04362e-05
5.23619e-08
1.04338e-05
6.88945e-08
1.04289e-05
6.50923e-08
1.04255e-05
6.39749e-08
1.0425e-05
7.48778e-08
1.04249e-05
8.25195e-08
1.04256e-05
8.23064e-08
1.04281e-05
8.58679e-08
1.04324e-05
9.18247e-08
1.04373e-05
9.60885e-08
1.04426e-05
9.70826e-08
9.61138e-08
1.04487e-05
1.0998e-05
4.73067e-08
1.10003e-05
1.24603e-08
1.09854e-05
-2.80135e-08
1.09806e-05
5.72929e-08
1.09633e-05
3.88739e-08
1.0955e-05
2.67731e-08
1.09518e-05
5.72267e-08
1.0941e-05
5.59964e-08
1.09334e-05
5.99359e-08
1.09304e-05
7.19873e-08
1.09262e-05
6.9213e-08
1.0923e-05
6.7236e-08
1.09224e-05
7.54814e-08
1.09227e-05
8.2212e-08
1.09235e-05
8.15015e-08
1.09263e-05
8.30428e-08
1.09308e-05
8.73185e-08
1.09361e-05
9.08001e-08
1.09417e-05
9.14407e-08
8.99173e-08
1.09479e-05
1.15221e-05
4.05965e-08
1.15075e-05
2.70345e-08
1.15032e-05
-2.3668e-08
1.15035e-05
5.69295e-08
1.1487e-05
5.54286e-08
1.14762e-05
3.74971e-08
1.14729e-05
6.05714e-08
1.14635e-05
6.54403e-08
1.14549e-05
6.8442e-08
1.14509e-05
7.6062e-08
1.14472e-05
7.28869e-08
1.14443e-05
7.01366e-08
1.14438e-05
7.60223e-08
1.14444e-05
8.15464e-08
1.14453e-05
8.06131e-08
1.14484e-05
7.99881e-08
1.14531e-05
8.25619e-08
1.14588e-05
8.5126e-08
1.14648e-05
8.54679e-08
8.35702e-08
1.14711e-05
1.20717e-05
3.47353e-08
1.20587e-05
4.00372e-08
1.20488e-05
-1.37757e-08
1.20509e-05
5.48647e-08
1.2036e-05
7.03196e-08
1.20229e-05
5.05433e-08
1.20188e-05
6.46917e-08
1.20107e-05
7.35278e-08
1.20018e-05
7.73297e-08
1.19966e-05
8.12403e-08
1.1993e-05
7.65487e-08
1.19905e-05
7.26568e-08
1.19901e-05
7.63832e-08
1.19911e-05
8.05487e-08
1.19921e-05
7.9565e-08
1.19953e-05
7.68151e-08
1.20003e-05
7.75922e-08
1.20063e-05
7.90872e-08
1.20127e-05
7.91307e-08
7.70037e-08
1.20192e-05
1.26474e-05
2.99632e-08
1.26345e-05
5.28869e-08
1.26236e-05
-2.8144e-09
1.26246e-05
5.38286e-08
1.26112e-05
8.37315e-08
1.25963e-05
6.54328e-08
1.25907e-05
7.03023e-08
1.25837e-05
8.04984e-08
1.25749e-05
8.61046e-08
1.25688e-05
8.7422e-08
1.25647e-05
8.05614e-08
1.25625e-05
7.4878e-08
1.25624e-05
7.64867e-08
1.25637e-05
7.92828e-08
1.25652e-05
7.80192e-08
1.25683e-05
7.37186e-08
1.25735e-05
7.2426e-08
1.25798e-05
7.27611e-08
1.25865e-05
7.24039e-08
7.01494e-08
1.25934e-05
1.32506e-05
2.62572e-08
1.32448e-05
5.87642e-08
1.32291e-05
1.28981e-08
1.32258e-05
5.70327e-08
1.32136e-05
9.59504e-08
1.31976e-05
8.1498e-08
1.319e-05
7.78866e-08
1.31837e-05
8.67681e-08
1.31754e-05
9.43987e-08
1.31685e-05
9.43364e-08
1.31639e-05
8.51933e-08
1.31617e-05
7.70364e-08
1.31618e-05
7.63852e-08
1.31634e-05
7.77368e-08
1.31655e-05
7.58276e-08
1.31686e-05
7.06859e-08
1.3174e-05
6.70474e-08
1.31804e-05
6.63558e-08
1.31875e-05
6.52414e-08
6.29242e-08
1.31948e-05
1.38827e-05
2.36961e-08
1.38788e-05
6.26475e-08
1.38614e-05
3.03076e-08
1.38559e-05
6.2609e-08
1.38448e-05
1.07003e-07
1.38281e-05
9.824e-08
1.38182e-05
8.77358e-08
1.3812e-05
9.29775e-08
1.38044e-05
1.02028e-07
1.37971e-05
1.01631e-07
1.37917e-05
9.05422e-08
1.37893e-05
7.94394e-08
1.37895e-05
7.61852e-08
1.37914e-05
7.58463e-08
1.37942e-05
7.30949e-08
1.37974e-05
6.73911e-08
1.3803e-05
6.14446e-08
1.38093e-05
6.00932e-08
1.3817e-05
5.75804e-08
5.52521e-08
1.38246e-05
1.4545e-05
2.2387e-08
1.4535e-05
7.25945e-08
1.45214e-05
4.39493e-08
1.4516e-05
6.79911e-08
1.4506e-05
1.17029e-07
1.4489e-05
1.15236e-07
1.44769e-05
9.98268e-08
1.447e-05
9.98628e-08
1.4463e-05
1.0901e-07
1.44557e-05
1.0896e-07
1.44497e-05
9.65125e-08
1.44468e-05
8.23817e-08
1.44469e-05
7.60339e-08
1.44491e-05
7.36713e-08
1.44523e-05
6.99311e-08
1.44562e-05
6.34657e-08
1.44617e-05
5.58967e-08
1.44682e-05
5.35917e-08
1.44761e-05
4.96889e-08
4.70259e-08
1.44844e-05
1.52391e-05
2.21417e-08
1.52336e-05
7.81433e-08
1.52157e-05
6.1836e-08
1.52072e-05
7.64464e-08
1.51984e-05
1.25896e-07
1.51816e-05
1.32003e-07
1.51675e-05
1.13936e-07
1.51593e-05
1.08086e-07
1.51526e-05
1.15631e-07
1.51455e-05
1.16117e-07
1.51391e-05
1.02919e-07
1.51354e-05
8.60728e-08
1.51353e-05
7.61447e-08
1.51376e-05
7.13578e-08
1.51412e-05
6.63322e-08
1.51458e-05
5.88385e-08
1.51511e-05
5.065e-08
1.51586e-05
4.60747e-08
1.51662e-05
4.20622e-08
3.80703e-08
1.51752e-05
1.59664e-05
2.30307e-08
1.59635e-05
8.10545e-08
1.59427e-05
8.27063e-08
1.59318e-05
8.72897e-08
1.59234e-05
1.34325e-07
1.59073e-05
1.48118e-07
1.58914e-05
1.29771e-07
1.58815e-05
1.18063e-07
1.58746e-05
1.22444e-07
1.58677e-05
1.2302e-07
1.58611e-05
1.09571e-07
1.58566e-05
9.0526e-08
1.5856e-05
7.68137e-08
1.58583e-05
6.90358e-08
1.58623e-05
6.235e-08
1.58673e-05
5.37815e-08
1.5873e-05
4.49907e-08
1.58809e-05
3.82058e-08
1.58892e-05
3.36868e-08
2.91763e-08
1.58981e-05
1.67284e-05
2.52407e-08
1.67153e-05
9.41511e-08
1.67035e-05
9.45512e-08
1.66916e-05
9.91175e-08
1.66826e-05
1.43342e-07
1.66673e-05
1.63399e-07
1.66502e-05
1.46904e-07
1.66383e-05
1.30002e-07
1.66307e-05
1.30029e-07
1.66239e-05
1.29813e-07
1.6617e-05
1.16423e-07
1.6612e-05
9.55756e-08
1.66104e-05
7.83375e-08
1.66126e-05
6.69212e-08
1.66168e-05
5.81465e-08
1.66222e-05
4.83781e-08
1.66286e-05
3.85671e-08
1.66366e-05
3.01545e-08
1.6646e-05
2.42929e-08
2.02393e-08
1.6655e-05
1.75276e-05
2.80143e-08
1.75329e-05
8.88515e-08
1.75062e-05
1.21256e-07
1.74877e-05
1.17565e-07
1.74778e-05
1.53283e-07
1.74633e-05
1.77913e-07
1.74453e-05
1.64899e-07
1.74312e-05
1.44038e-07
1.74223e-05
1.38942e-07
1.74153e-05
1.36857e-07
1.74082e-05
1.23555e-07
1.74026e-05
1.01114e-07
1.74001e-05
8.08703e-08
1.74017e-05
6.53467e-08
1.74059e-05
5.38743e-08
1.74118e-05
4.25194e-08
1.7419e-05
3.14055e-08
1.74275e-05
2.16436e-08
1.74372e-05
1.45469e-08
9.83967e-09
1.74476e-05
1.83645e-05
3.19025e-08
1.83521e-05
1.01192e-07
1.83409e-05
1.32456e-07
1.83231e-05
1.35365e-07
1.8311e-05
1.65434e-07
1.82968e-05
1.92099e-07
1.82783e-05
1.83388e-07
1.82622e-05
1.60161e-07
1.82515e-05
1.4963e-07
1.82437e-05
1.44649e-07
1.82362e-05
1.31072e-07
1.82301e-05
1.07214e-07
1.82265e-05
8.44916e-08
1.82272e-05
6.46402e-08
1.82313e-05
4.97604e-08
1.82376e-05
3.6235e-08
1.82454e-05
2.35134e-08
1.82547e-05
1.23558e-08
1.82652e-05
4.06848e-09
-1.77477e-09
1.82768e-05
1.9242e-05
3.63426e-08
1.92377e-05
1.05456e-07
1.92175e-05
1.52616e-07
1.91985e-05
1.54394e-07
1.91839e-05
1.80066e-07
1.91697e-05
2.06295e-07
1.91509e-05
2.02203e-07
1.91327e-05
1.78305e-07
1.91199e-05
1.62487e-07
1.91108e-05
1.53748e-07
1.91026e-05
1.39261e-07
1.90956e-05
1.14175e-07
1.90908e-05