/*--------------------------------*- C++ -*----------------------------------*\
| =========                 |                                                 |
| \\      /  F ield         | OpenFOAM: The Open Source CFD Toolbox           |
|  \\    /   O peration     | Version:  v2012                                 |
|   \\  /    A nd           | Website:  www.openfoam.com                      |
|    \\/     M anipulation  |                                                 |
\*---------------------------------------------------------------------------*/
FoamFile
{
    version     2.0;
    format      ascii;
    class       volVectorField;
    location    "4";
    object      U;
}
// * * * * * * * * * * * * * * * * * * * * * * * * * * * * * * * * * * * * * //

dimensions      [0 1 -1 0 0 0 0];


internalField   nonuniform List<vector> 
17600
(
(0.84557 0.00443085 0)
(1.14718 -0.00702752 0)
(0.841178 0.00619233 0)
(1.14415 -0.0031426 0)
(0.831628 0.000378886 0)
(1.13563 0.000945475 0)
(0.839639 -0.00128204 0)
(1.12591 -0.000594479 0)
(0.845061 1.61473e-05 0)
(1.12158 -0.000446556 0)
(0.853585 0.001125 0)
(1.11784 0.000195406 0)
(0.859989 0.00220063 0)
(1.11423 0.000598425 0)
(0.861852 0.00278091 0)
(1.1106 0.000755572 0)
(0.858371 0.00323259 0)
(1.10733 0.000878063 0)
(0.847387 0.00397433 0)
(1.10326 0.00119899 0)
(0.854584 0.00439423 0)
(1.13337 -0.0067949 0)
(0.848682 0.00603941 0)
(1.12758 -0.00286899 0)
(0.842769 0.000257469 0)
(1.11786 0.00108601 0)
(0.856633 -0.00139174 0)
(1.10679 -0.000425987 0)
(0.865958 -0.00019373 0)
(1.09892 -0.000300529 0)
(0.879685 0.000941968 0)
(1.0893 0.000351186 0)
(0.894403 0.00204394 0)
(1.07614 0.000762581 0)
(0.909504 0.00273382 0)
(1.0572 0.000862059 0)
(0.926845 0.00353597 0)
(1.02968 0.000668947 0)
(0.947756 0.00540142 0)
(0.987824 0.000304278 0)
(0.872285 0.00439654 0)
(1.11145 -0.0065588 0)
(0.864995 0.00588521 0)
(1.1014 -0.00263121 0)
(0.866009 0.000147965 0)
(1.08722 0.00112366 0)
(0.887018 -0.00145825 0)
(1.07417 -0.000366915 0)
(0.900858 -0.000274603 0)
(1.06237 -0.000307465 0)
(0.919489 0.000888781 0)
(1.04818 0.000286048 0)
(0.93903 0.00210072 0)
(1.03154 0.000629361 0)
(0.957 0.00295637 0)
(1.01286 0.000659666 0)
(0.971703 0.00393223 0)
(0.994066 0.000538799 0)
(0.979469 0.00585085 0)
(0.977206 0.0013335 0)
(0.896068 0.00444235 0)
(1.08584 -0.006354 0)
(0.888298 0.00581588 0)
(1.07217 -0.00251696 0)
(0.897113 0.000141729 0)
(1.05309 0.00102357 0)
(0.922159 -0.00142599 0)
(1.03991 -0.000441267 0)
(0.936351 -0.000220181 0)
(1.02796 -0.000467836 0)
(0.953872 0.000995723 0)
(1.01593 6.45455e-05 0)
(0.969651 0.00228536 0)
(1.00533 0.000389702 0)
(0.98075 0.0032084 0)
(0.996504 0.000471641 0)
(0.986055 0.00420044 0)
(0.989649 0.000562794 0)
(0.984571 0.00601948 0)
(0.983083 0.00244159 0)
(0.922111 0.00450938 0)
(1.0608 -0.00617346 0)
(0.914656 0.00581475 0)
(1.04576 -0.00251047 0)
(0.928906 0.000235914 0)
(1.02484 0.00084069 0)
(0.952881 -0.00134126 0)
(1.01466 -0.000562036 0)
(0.962965 -0.000122684 0)
(1.00643 -0.000649339 0)
(0.975002 0.00110731 0)
(1.00005 -0.000123805 0)
(0.9843 0.00239675 0)
(0.996473 0.000243592 0)
(0.989374 0.00331966 0)
(0.994055 0.000406843 0)
(0.990489 0.00431665 0)
(0.991244 0.00067093 0)
(0.98758 0.0061335 0)
(0.98606 0.00342899 0)
(0.946496 0.00457719 0)
(1.03985 -0.00601748 0)
(0.939743 0.00584723 0)
(1.02614 -0.00257248 0)
(0.9555 0.000376514 0)
(1.0074 0.000642826 0)
(0.974716 -0.00125953 0)
(1.00172 -0.00065864 0)
(0.97941 -4.64809e-05 0)
(0.997802 -0.000776103 0)
(0.985945 0.00116086 0)
(0.995681 -0.000234041 0)
(0.990763 0.00241838 0)
(0.995614 0.000173301 0)
(0.993217 0.0033364 0)
(0.995302 0.000399858 0)
(0.993422 0.00435074 0)
(0.993377 0.000833853 0)
(0.99069 0.00620695 0)
(0.988805 0.00431678 0)
(0.966346 0.00462854 0)
(1.02474 -0.00588532 0)
(0.960447 0.00588506 0)
(1.01421 -0.00266041 0)
(0.974515 0.000510342 0)
(1.00001 0.000474643 0)
(0.988181 -0.00120226 0)
(0.997912 -0.000713443 0)
(0.988867 2.27604e-07 0)
(0.996616 -0.000849946 0)
(0.991868 0.00117778 0)
(0.996207 -0.000299753 0)
(0.994478 0.0024032 0)
(0.997091 0.0001305 0)
(0.995993 0.00331758 0)
(0.997251 0.000422394 0)
(0.996009 0.0043291 0)
(0.995671 0.00107423 0)
(0.993455 0.00620166 0)
(0.991713 0.00515729 0)
(0.98051 0.00465246 0)
(1.01522 -0.0057731 0)
(0.975582 0.00590827 0)
(1.00833 -0.0027432 0)
(0.986558 0.00061023 0)
(0.998732 0.000346923 0)
(0.995883 -0.00116409 0)
(0.998396 -0.000740489 0)
(0.994493 3.33362e-05 0)
(0.998069 -0.000892681 0)
(0.995655 0.0011859 0)
(0.997917 -0.000343829 0)
(0.997192 0.00238085 0)
(0.998813 0.000102509 0)
(0.998222 0.00328331 0)
(0.999037 0.000473201 0)
(0.998115 0.00426193 0)
(0.997666 0.0013865 0)
(0.995727 0.00612436 0)
(0.994206 0.00594756 0)
(0.989464 0.00464754 0)
(1.0098 -0.00567668 0)
(0.985591 0.00590788 0)
(1.00599 -0.00280615 0)
(0.993533 0.000673093 0)
(0.999784 0.000252045 0)
(1.00017 -0.00113331 0)
(0.999908 -0.000756025 0)
(0.997992 6.44673e-05 0)
(0.999798 -0.000918299 0)
(0.998272 0.00119632 0)
(0.999483 -0.000371607 0)
(0.999192 0.00235717 0)
(1.00018 9.25924e-05 0)
(0.999854 0.00323347 0)
(1.00036 0.000557373 0)
(0.999631 0.00415514 0)
(0.999107 0.00175269 0)
(0.997408 0.00600411 0)
(0.996059 0.00666642 0)
(0.99459 0.00461994 0)
(1.0068 -0.00559238 0)
(0.991731 0.00588429 0)
(1.00521 -0.00284639 0)
(0.997322 0.000707996 0)
(1.00105 0.000178341 0)
(1.0025 -0.00110254 0)
(1.00112 -0.000767446 0)
(1.00013 9.62681e-05 0)
(1.0011 -0.000933524 0)
(1.00004 0.0012095 0)
(1.00066 -0.000384889 0)
(1.00059 0.00232931 0)
(1.00117 0.000105019 0)
(1.00097 0.00316232 0)
(1.00126 0.000680187 0)
(1.00064 0.00401373 0)
(1.00007 0.00215502 0)
(0.99857 0.00587228 0)
(0.997361 0.00729123 0)
(0.997363 0.00457821 0)
(1.00502 -0.0055163 0)
(0.995344 0.0058415 0)
(1.0049 -0.00286597 0)
(0.999296 0.000724447 0)
(1.00187 0.000118566 0)
(1.00369 -0.00107059 0)
(1.0018 -0.000777147 0)
(1.00137 0.00012603 0)
(1.00196 -0.000942237 0)
(1.00121 0.00122044 0)
(1.00152 -0.000384902 0)
(1.00157 0.00229181 0)
(1.00193 0.000142612 0)
(1.00176 0.00306481 0)
(1.00192 0.000842433 0)
(1.00135 0.00384521 0)
(1.00075 0.00257481 0)
(0.999413 0.00576056 0)
(0.998316 0.0078048 0)
(0.998869 0.00452905 0)
(1.00385 -0.00544446 0)
(0.99746 0.00578292 0)
(1.00468 -0.0028678 0)
(1.00031 0.000728169 0)
(1.00225 6.93645e-05 0)
(1.00424 -0.00103912 0)
(1.0021 -0.000786012 0)
(1.00203 0.000149176 0)
(1.00249 -0.000946651 0)
(1.00198 0.00122254 0)
(1.00218 -0.000371949 0)
(1.00231 0.00223839 0)
(1.00255 0.000206817 0)
(1.00238 0.00293963 0)
(1.00247 0.00103858 0)
(1.00192 0.00366347 0)
(1.0013 0.00298917 0)
(1.00011 0.0056969 0)
(0.999103 0.0082009 0)
(0.999725 0.00447598 0)
(1.00304 -0.00537346 0)
(0.998727 0.00571051 0)
(1.00449 -0.00285431 0)
(1.00084 0.000721448 0)
(1.00239 2.97128e-05 0)
(1.00446 -0.00101057 0)
(1.0022 -0.000793235 0)
(1.00237 0.000162457 0)
(1.00283 -0.000947147 0)
(1.00249 0.00121014 0)
(1.00269 -0.0003456 0)
(1.00288 0.00216381 0)
(1.00308 0.000296774 0)
(1.00292 0.00278955 0)
(1.00295 0.00125824 0)
(1.00244 0.00348919 0)
(1.0018 0.00337385 0)
(1.00074 0.00569804 0)
(0.999812 0.00848754 0)
(1.00023 0.00442011 0)
(1.0025 -0.00530072 0)
(0.999497 0.00562541 0)
(1.00432 -0.00282741 0)
(1.00114 0.00070479 0)
(1.00243 -2.13375e-07 0)
(1.00453 -0.000987548 0)
(1.00222 -0.000796417 0)
(1.00254 0.000164723 0)
(1.00303 -0.000942188 0)
(1.00284 0.00117988 0)
(1.00306 -0.000305424 0)
(1.00331 0.00206586 0)
(1.0035 0.000408688 0)
(1.00336 0.00262132 0)
(1.00336 0.00148702 0)
(1.0029 0.00334424 0)
(1.00225 0.00371066 0)
(1.00132 0.00576493 0)
(1.00046 0.00868464 0)
(1.00052 0.00436131 0)
(1.00217 -0.00522435 0)
(0.999963 0.0055283 0)
(1.0042 -0.00278847 0)
(1.00132 0.000678052 0)
(1.00243 -2.00814e-05 0)
(1.00456 -0.000971662 0)
(1.00221 -0.000793432 0)
(1.00263 0.000154174 0)
(1.00315 -0.000928706 0)
(1.00306 0.00112956 0)
(1.00332 -0.000251001 0)
(1.00363 0.0019445 0)
(1.0038 0.000537747 0)
(1.00371 0.00244463 0)
(1.00368 0.00170897 0)
(1.00328 0.00324315 0)
(1.00263 0.00399547 0)
(1.00182 0.00588655 0)
(1.00103 0.00881683 0)
(1.00068 0.00429913 0)
(1.00198 -0.00514286 0)
(1.00024 0.00541957 0)
(1.00409 -0.00273825 0)
(1.00144 0.000640593 0)
(1.00241 -2.90937e-05 0)
(1.00456 -0.000964915 0)
(1.0022 -0.000781669 0)
(1.00267 0.000128436 0)
(1.00322 -0.000902935 0)
(1.00321 0.00105837 0)
(1.00348 -0.000182729 0)
(1.00384 0.00180181 0)
(1.004 0.000677104 0)
(1.00395 0.00227271 0)
(1.0039 0.00190913 0)
(1.00357 0.00319033 0)
(1.00294 0.00423555 0)
(1.00225 0.00604533 0)
(1.00154 0.0089053 0)
(1.00075 0.0042331 0)
(1.00188 -0.005055 0)
(1.0004 0.00529929 0)
(1.004 -0.00267686 0)
(1.00153 0.000591321 0)
(1.00238 -2.61546e-05 0)
(1.00456 -0.000970004 0)
(1.0022 -0.000757835 0)
(1.0027 8.65453e-05 0)
(1.00327 -0.000863674 0)
(1.0033 0.000968152 0)
(1.00358 -0.000104066 0)
(1.00398 0.00164418 0)
(1.00413 0.000814951 0)
(1.00413 0.00212237 0)
(1.00406 0.00207738 0)
(1.00381 0.00318361 0)
(1.00319 0.00443953 0)
(1.00262 0.00622188 0)
(1.00198 0.00896361 0)
(1.00079 0.00416284 0)
(1.00183 -0.00495986 0)
(1.0005 0.00516721 0)
(1.00391 -0.00260408 0)
(1.00161 0.000529498 0)
(1.00234 -1.05745e-05 0)
(1.00457 -0.000989438 0)
(1.0022 -0.000719732 0)
(1.00272 2.95266e-05 0)
(1.00329 -0.000812363 0)
(1.00337 0.00086029 0)
(1.00364 -1.33294e-05 0)
(1.00409 0.00148265 0)
(1.00421 0.000936241 0)
(1.00426 0.00200527 0)
(1.00417 0.00221491 0)
(1.004 0.00321753 0)
(1.00342 0.00461651 0)
(1.00295 0.00640355 0)
(1.00238 0.00900276 0)
(1.00081 0.00408813 0)
(1.00179 -0.00485667 0)
(1.00057 0.00502289 0)
(1.00381 -0.00251945 0)
(1.00169 0.000453783 0)
(1.0023 1.99524e-05 0)
(1.00457 -0.00102556 0)
(1.00221 -0.000667599 0)
(1.00274 -4.27273e-05 0)
(1.00332 -0.000749236 0)
(1.00343 0.000740499 0)
(1.00368 8.29684e-05 0)
(1.00417 0.0013303 0)
(1.00426 0.00102894 0)
(1.00437 0.00191942 0)
(1.00426 0.00232908 0)
(1.00417 0.00328283 0)
(1.00363 0.00477648 0)
(1.00325 0.0065868 0)
(1.00276 0.00903766 0)
(1.00082 0.00400864 0)
(1.00177 -0.0047443 0)
(1.00062 0.00486505 0)
(1.00372 -0.00242105 0)
(1.00176 0.000361158 0)
(1.00225 6.7506e-05 0)
(1.00458 -0.00107834 0)
(1.00222 -0.000602282 0)
(1.00277 -0.000127612 0)
(1.00334 -0.000679198 0)
(1.00349 0.000614593 0)
(1.00371 0.000167797 0)
(1.00424 0.00119806 0)
(1.0043 0.00109039 0)
(1.00446 0.00185455 0)
(1.00435 0.00242532 0)
(1.00434 0.00336727 0)
(1.00384 0.00492504 0)
(1.00355 0.00676952 0)
(1.00311 0.00908364 0)
(1.00082 0.00392399 0)
(1.00176 -0.00462167 0)
(1.00068 0.00469242 0)
(1.00362 -0.0023078 0)
(1.00183 0.000250738 0)
(1.0022 0.000130774 0)
(1.00459 -0.00114745 0)
(1.00224 -0.000522657 0)
(1.00279 -0.000225491 0)
(1.00336 -0.000605008 0)
(1.00355 0.000494295 0)
(1.00374 0.000232416 0)
(1.0043 0.00109202 0)
(1.00434 0.00112798 0)
(1.00455 0.00180498 0)
(1.00444 0.00250997 0)
(1.0045 0.00346399 0)
(1.00406 0.00506519 0)
(1.00384 0.00694687 0)
(1.00345 0.00914954 0)
(1.00081 0.00383411 0)
(1.00175 -0.00448868 0)
(1.00072 0.00450475 0)
(1.00352 -0.00217987 0)
(1.0019 0.000122331 0)
(1.00215 0.000210446 0)
(1.0046 -0.00123372 0)
(1.00226 -0.00043554 0)
(1.00281 -0.000327939 0)
(1.00339 -0.000537811 0)
(1.0036 0.000388334 0)
(1.00377 0.000266252 0)
(1.00437 0.00100607 0)
(1.00438 0.00114731 0)
(1.00465 0.00176534 0)
(1.00454 0.00258692 0)
(1.00468 0.00357016 0)
(1.00429 0.00519992 0)
(1.00414 0.00711134 0)
(1.00378 0.009235 0)
(1.0008 0.00373917 0)
(1.00175 -0.00434411 0)
(1.00076 0.00429957 0)
(1.00342 -0.00203407 0)
(1.00196 -2.60348e-05 0)
(1.00211 0.000303996 0)
(1.00461 -0.00133423 0)
(1.00228 -0.000348529 0)
(1.00283 -0.00042833 0)
(1.00343 -0.000484777 0)
(1.00366 0.000302263 0)
(1.0038 0.000270566 0)
(1.00443 0.000929908 0)
(1.00443 0.00115421 0)
(1.00474 0.00172343 0)
(1.00466 0.002655 0)
(1.00486 0.0036774 0)
(1.00453 0.00533212 0)
(1.00445 0.00725706 0)
(1.00412 0.00933709 0)
(1.00077 0.00363739 0)
(1.00175 -0.0041836 0)
(1.0008 0.00407122 0)
(1.00333 -0.00186763 0)
(1.00202 -0.000197103 0)
(1.00208 0.000414159 0)
(1.0046 -0.00144734 0)
(1.00232 -0.000256989 0)
(1.00284 -0.000524656 0)
(1.00347 -0.000448498 0)
(1.0037 0.000246462 0)
(1.00385 0.00025327 0)
(1.00448 0.000860159 0)
(1.00448 0.00115281 0)
(1.00484 0.00166941 0)
(1.00479 0.00270148 0)
(1.00505 0.003771 0)
(1.00479 0.00545022 0)
(1.00476 0.00738325 0)
(1.00445 0.00946222 0)
(1.00074 0.00353085 0)
(1.00177 -0.00401063 0)
(1.00082 0.00382605 0)
(1.00325 -0.00169077 0)
(1.00207 -0.000379839 0)
(1.00205 0.000529567 0)
(1.00459 -0.00155497 0)
(1.00236 -0.000175673 0)
(1.00285 -0.000580241 0)
(1.00352 -0.000462037 0)
(1.00374 0.000228996 0)
(1.00389 0.00020076 0)
(1.00454 0.000808689 0)
(1.00454 0.00113572 0)
(1.00494 0.00162397 0)
(1.00494 0.0026955 0)
(1.00524 0.00383868 0)
(1.00507 0.00547266 0)
(1.00509 0.00746971 0)
(1.00479 0.00959669 0)
(1.00068 0.00341796 0)
(1.0018 -0.00382157 0)
(1.00084 0.00356131 0)
(1.00317 -0.00149747 0)
(1.00211 -0.000576575 0)
(1.00204 0.000648086 0)
(1.00457 -0.001659 0)
(1.00242 -0.000122059 0)
(1.00283 -0.000597885 0)
(1.00357 -0.000513619 0)
(1.00377 0.000227138 0)
(1.00394 0.000135968 0)
(1.00459 0.000747713 0)
(1.00461 0.0011281 0)
(1.00504 0.00158579 0)
(1.0051 0.00266181 0)
(1.00544 0.00385865 0)
(1.00537 0.00541904 0)
(1.00544 0.00740709 0)
(1.00516 0.00954857 0)
(1.00062 0.00329788 0)
(1.00183 -0.00361272 0)
(1.00084 0.00327081 0)
(1.0031 -0.00128515 0)
(1.00214 -0.000787727 0)
(1.00203 0.000769293 0)
(1.00453 -0.00175825 0)
(1.00248 -9.69049e-05 0)
(1.00281 -0.000590864 0)
(1.00364 -0.000584365 0)
(1.0038 0.000224944 0)
(1.004 8.25547e-05 0)
(1.00465 0.00065619 0)
(1.00468 0.00113524 0)
(1.00514 0.0015566 0)
(1.00528 0.00263849 0)
(1.00565 0.00392432 0)
(1.00567 0.00544892 0)
(1.0058 0.0073641 0)
(1.00557 0.00952388 0)
(1.00055 0.00317378 0)
(1.00186 -0.00339134 0)
(1.00084 0.00296899 0)
(1.00302 -0.00107292 0)
(1.00217 -0.000993395 0)
(1.00202 0.000872489 0)
(1.00448 -0.00181449 0)
(1.00255 -0.000116706 0)
(1.00278 -0.000538257 0)
(1.00371 -0.000687525 0)
(1.00382 0.00023424 0)
(1.00405 4.60817e-05 0)
(1.0047 0.000557629 0)
(1.00476 0.001156 0)
(1.00523 0.00160197 0)
(1.00547 0.0026678 0)
(1.00587 0.00407969 0)
(1.00597 0.00558192 0)
(1.00617 0.00742184 0)
(1.006 0.00951281 0)
(1.00047 0.00304161 0)
(1.00189 -0.0031516 0)
(1.00084 0.00264927 0)
(1.00295 -0.000852518 0)
(1.0022 -0.00120078 0)
(1.00202 0.000954554 0)
(1.00443 -0.00183576 0)
(1.00263 -0.000173146 0)
(1.00274 -0.000457549 0)
(1.00378 -0.000795361 0)
(1.00385 0.000230141 0)
(1.00409 6.83893e-05 0)
(1.00477 0.000492305 0)
(1.00486 0.00123305 0)
(1.00534 0.00173207 0)
(1.00568 0.00275041 0)
(1.0061 0.00422133 0)
(1.00628 0.00575609 0)
(1.00654 0.00750024 0)
(1.00643 0.00949063 0)
(1.0004 0.00290709 0)
(1.00191 -0.00290214 0)
(1.00084 0.0023199 0)
(1.00287 -0.000639921 0)
(1.00222 -0.00139412 0)
(1.00202 0.000999437 0)
(1.00437 -0.00182285 0)
(1.00272 -0.000261934 0)
(1.0027 -0.000358757 0)
(1.00384 -0.00088877 0)
(1.00389 0.00021859 0)
(1.00413 0.000166266 0)
(1.00483 0.000487114 0)
(1.00497 0.00136159 0)
(1.00544 0.00191348 0)
(1.0059 0.00284811 0)
(1.00636 0.00432332 0)
(1.0066 0.00591204 0)
(1.0069 0.00756593 0)
(1.00686 0.00943076 0)
(1.00033 0.00276709 0)
(1.00192 -0.0026425 0)
(1.00085 0.00199228 0)
(1.00279 -0.000451356 0)
(1.00224 -0.00155597 0)
(1.00203 0.0010015 0)
(1.0043 -0.00177421 0)
(1.0028 -0.000377327 0)
(1.00265 -0.000248813 0)
(1.0039 -0.000940976 0)
(1.00394 0.000219147 0)
(1.00417 0.000316177 0)
(1.00491 0.00051593 0)
(1.0051 0.00148851 0)
(1.00555 0.00212261 0)
(1.00611 0.00295577 0)
(1.00663 0.00438622 0)
(1.00692 0.00601288 0)
(1.00725 0.00761104 0)
(1.00727 0.00934011 0)
(1.00027 0.00262182 0)
(1.00191 -0.00237209 0)
(1.00086 0.00166662 0)
(1.00269 -0.000290402 0)
(1.00227 -0.00169376 0)
(1.00203 0.000969812 0)
(1.00423 -0.00170577 0)
(1.00289 -0.000500509 0)
(1.00262 -0.000130656 0)
(1.00394 -0.000923176 0)
(1.00401 0.000237369 0)
(1.00421 0.000500684 0)
(1.00498 0.000563212 0)
(1.00523 0.00157277 0)
(1.00566 0.00231946 0)
(1.00631 0.00307348 0)
(1.00691 0.0044057 0)
(1.00726 0.00604311 0)
(1.0076 0.00760914 0)
(1.00767 0.00921491 0)
(1.00022 0.00247777 0)
(1.00189 -0.00210887 0)
(1.00088 0.00136418 0)
(1.00259 -0.000167858 0)
(1.00229 -0.00180395 0)
(1.00203 0.000901284 0)
(1.00416 -0.0016157 0)
(1.00297 -0.000621705 0)
(1.00259 2.16814e-05 0)
(1.00398 -0.000837436 0)
(1.00409 0.000268993 0)
(1.00424 0.000707672 0)
(1.00505 0.000639517 0)
(1.00538 0.00160827 0)
(1.00578 0.00248324 0)
(1.00649 0.00320023 0)
(1.00719 0.00440024 0)
(1.0076 0.00601139 0)
(1.00795 0.00755628 0)
(1.00805 0.00905968 0)
(1.00018 0.00233024 0)
(1.00185 -0.00184958 0)
(1.0009 0.00109223 0)
(1.00248 -8.20083e-05 0)
(1.00232 -0.00188636 0)
(1.00204 0.000794173 0)
(1.00409 -0.00149962 0)
(1.00306 -0.000710552 0)
(1.00257 0.000212111 0)
(1.004 -0.000699671 0)
(1.00419 0.000285054 0)
(1.00428 0.000908517 0)
(1.00511 0.000752673 0)
(1.00554 0.00161101 0)
(1.00592 0.00261 0)
(1.00667 0.00333765 0)
(1.00746 0.00440165 0)
(1.00794 0.00594628 0)
(1.00831 0.00747191 0)
(1.00841 0.0088934 0)
(1.00014 0.0021838 0)
(1.0018 -0.00160285 0)
(1.00092 0.000853271 0)
(1.00237 -2.21981e-05 0)
(1.00234 -0.00195257 0)
(1.00205 0.000674269 0)
(1.00402 -0.0013731 0)
(1.00315 -0.000752334 0)
(1.00257 0.000416304 0)
(1.00401 -0.000528777 0)
(1.00429 0.000274086 0)
(1.00432 0.00107052 0)
(1.00515 0.000894878 0)
(1.00569 0.00159564 0)
(1.00607 0.00268644 0)
(1.00684 0.00346946 0)
(1.00772 0.00441897 0)
(1.00829 0.00586376 0)
(1.00867 0.00736107 0)
(1.00877 0.00871767 0)
(1.00011 0.00204221 0)
(1.00174 -0.00137909 0)
(1.00095 0.000655397 0)
(1.00226 1.5569e-05 0)
(1.00236 -0.00200136 0)
(1.00207 0.000561272 0)
(1.00395 -0.00120961 0)
(1.00325 -0.000777653 0)
(1.00258 0.00059045 0)
(1.004 -0.00034035 0)
(1.0044 0.000247878 0)
(1.00436 0.00118872 0)
(1.00519 0.00106225 0)
(1.00584 0.00158875 0)
(1.00625 0.00271674 0)
(1.00701 0.00358219 0)
(1.00797 0.00445367 0)
(1.00863 0.00577564 0)
(1.00903 0.00722466 0)
(1.00911 0.00852714 0)
(1.00009 0.00189796 0)
(1.00167 -0.00116943 0)
(1.00097 0.00049203 0)
(1.00214 4.27291e-05 0)
(1.00237 -0.00202418 0)
(1.0021 0.000454314 0)
(1.00388 -0.000992375 0)
(1.00335 -0.000792653 0)
(1.0026 0.000717897 0)
(1.00397 -0.000132939 0)
(1.0045 0.000222701 0)
(1.00443 0.00126923 0)
(1.00521 0.00124613 0)
(1.00598 0.00161319 0)
(1.00644 0.00271665 0)
(1.00719 0.00367078 0)
(1.00821 0.00450218 0)
(1.00897 0.00569273 0)
(1.00939 0.00706882 0)
(1.00945 0.00832078 0)
(1.00006 0.00175957 0)
(1.0016 -0.0009886 0)
(1.00099 0.000355985 0)
(1.00202 8.76152e-05 0)
(1.00239 -0.00201429 0)
(1.00214 0.000351503 0)
(1.00382 -0.000761685 0)
(1.00345 -0.000791819 0)
(1.00264 0.000799943 0)
(1.00393 9.15836e-05 0)
(1.0046 0.000208034 0)
(1.00451 0.0013095 0)
(1.00523 0.00142926 0)
(1.00611 0.0016728 0)
(1.00665 0.00269557 0)
(1.00738 0.00372428 0)
(1.00843 0.00454676 0)
(1.00928 0.00561218 0)
(1.00974 0.00689394 0)
(1.00978 0.00809292 0)
(1.00005 0.00162656 0)
(1.00152 -0.000838317 0)
(1.001 0.000242036 0)
(1.0019 0.000152807 0)
(1.00239 -0.00196397 0)
(1.00219 0.000251315 0)
(1.00375 -0.000533723 0)
(1.00354 -0.000770275 0)
(1.00269 0.00083625 0)
(1.00388 0.000321647 0)
(1.00468 0.000223683 0)
(1.00461 0.00131661 0)
(1.00526 0.00160521 0)
(1.00622 0.00177028 0)
(1.00686 0.00267213 0)
(1.00759 0.00374006 0)
(1.00865 0.0045746 0)
(1.00958 0.00553121 0)
(1.01009 0.00670428 0)
(1.01011 0.00784303 0)
(1.00003 0.00149681 0)
(1.00144 -0.000710709 0)
(1.00102 0.000143366 0)
(1.00179 0.000229698 0)
(1.00239 -0.00187232 0)
(1.00226 0.000150273 0)
(1.0037 -0.000319377 0)
(1.00362 -0.000711412 0)
(1.00277 0.000843496 0)
(1.00384 0.000551523 0)
(1.00475 0.000285312 0)
(1.00473 0.00130089 0)
(1.0053 0.00176115 0)
(1.00631 0.00189776 0)
(1.00706 0.00266071 0)
(1.00781 0.00372089 0)
(1.00887 0.00457465 0)
(1.00986 0.00544407 0)
(1.01042 0.00650307 0)
(1.01043 0.0075728 0)
(1.00001 0.00136987 0)
(1.00136 -0.000599945 0)
(1.00104 5.21586e-05 0)
(1.00168 0.00031801 0)
(1.00239 -0.00173519 0)
(1.00234 5.56739e-05 0)
(1.00365 -0.000111525 0)
(1.0037 -0.000614857 0)
(1.00286 0.000827707 0)
(1.00379 0.00076838 0)
(1.00481 0.000393033 0)
(1.00486 0.00127549 0)
(1.00535 0.00187914 0)
(1.00639 0.00203797 0)
(1.00726 0.00266672 0)
(1.00804 0.00367586 0)
(1.00909 0.00454221 0)
(1.01012 0.00534631 0)
(1.01074 0.00629474 0)
(1.01075 0.00728764 0)
(1 0.00124742 0)
(1.00129 -0.000503908 0)
(1.00107 -4.02741e-05 0)
(1.00158 0.000403293 0)
(1.00237 -0.00155017 0)
(1.00244 -1.33972e-05 0)
(1.00361 9.14432e-05 0)
(1.00376 -0.000489492 0)
(1.00296 0.000792631 0)
(1.00376 0.000952132 0)
(1.00484 0.000531981 0)
(1.005 0.0012522 0)
(1.00543 0.00194901 0)
(1.00647 0.00216938 0)
(1.00744 0.00268886 0)
(1.00828 0.00361859 0)
(1.00932 0.00448291 0)
(1.01037 0.00523891 0)
(1.01104 0.00608549 0)
(1.01106 0.00699456 0)
(0.999994 0.00112577 0)
(1.00121 -0.000412781 0)
(1.0011 -0.000148593 0)
(1.0015 0.000484308 0)
(1.00236 -0.0013137 0)
(1.00254 -4.02995e-05 0)
(1.00359 0.000281678 0)
(1.00382 -0.000332304 0)
(1.00308 0.00075662 0)
(1.00374 0.00110021 0)
(1.00487 0.000690835 0)
(1.00514 0.00124448 0)
(1.00553 0.00197735 0)
(1.00655 0.00227291 0)
(1.00761 0.0027172 0)
(1.00851 0.00355466 0)
(1.00955 0.00439957 0)
(1.01061 0.00511771 0)
(1.01133 0.00587231 0)
(1.01137 0.00669199 0)
(0.999988 0.00100848 0)
(1.00113 -0.000332901 0)
(1.00114 -0.000270077 0)
(1.00144 0.000550662 0)
(1.00233 -0.00103253 0)
(1.00265 -4.10343e-05 0)
(1.00359 0.00045022 0)
(1.00386 -0.00014969 0)
(1.00321 0.000732682 0)
(1.00375 0.00121697 0)
(1.00488 0.000868478 0)
(1.00527 0.00126809 0)
(1.00565 0.00198955 0)
(1.00663 0.00235017 0)
(1.00776 0.00274924 0)
(1.00874 0.00349207 0)
(1.00978 0.00429925 0)
(1.01084 0.0049826 0)
(1.0116 0.00565341 0)
(1.01166 0.0063802 0)
(0.999984 0.000890685 0)
(1.00106 -0.000259251 0)
(1.00119 -0.000413686 0)
(1.00141 0.000624907 0)
(1.00231 -0.000694915 0)
(1.00276 4.62889e-06 0)
(1.0036 0.000607473 0)
(1.0039 6.23907e-05 0)
(1.00333 0.000735295 0)
(1.00378 0.00130045 0)
(1.00489 0.00105019 0)
(1.00539 0.00132013 0)
(1.00579 0.0019955 0)
(1.00673 0.00240246 0)
(1.00791 0.00277659 0)
(1.00897 0.00343113 0)
(1.01001 0.0041874 0)
(1.01107 0.00483727 0)
(1.01184 0.00543482 0)
(1.01193 0.0060705 0)
(0.999982 0.000794352 0)
(1.00098 -0.000217376 0)
(1.00124 -0.000510067 0)
(1.00141 0.000701166 0)
(1.00229 -0.000345542 0)
(1.00286 8.29125e-05 0)
(1.00362 0.000737566 0)
(1.00392 0.000296374 0)
(1.00346 0.000773675 0)
(1.00383 0.00135797 0)
(1.00491 0.0012222 0)
(1.00551 0.00140003 0)
(1.00593 0.00200507 0)
(1.00684 0.00243671 0)
(1.00806 0.00279233 0)
(1.00918 0.00336539 0)
(1.01025 0.00406038 0)
(1.01129 0.00467484 0)
(1.01208 0.00520921 0)
(1.01218 0.00575825 0)
(0.999982 0.000721409 0)
(1.0009 -0.00014603 0)
(1.00131 -0.000533589 0)
(1.00144 0.000708053 0)
(1.00227 -5.5258e-05 0)
(1.00296 0.000152967 0)
(1.00367 0.000833287 0)
(1.00395 0.000534092 0)
(1.00358 0.000845067 0)
(1.0039 0.00139226 0)
(1.00494 0.00136112 0)
(1.00561 0.00148641 0)
(1.00607 0.00201319 0)
(1.00697 0.00244914 0)
(1.00821 0.0027875 0)
(1.00939 0.00328801 0)
(1.01048 0.00391801 0)
(1.01151 0.00449607 0)
(1.01229 0.00497806 0)
(1.01241 0.00544829 0)
(0.999984 0.000559465 0)
(1.00082 0.000114371 0)
(1.00136 -0.000477291 0)
(1.00149 0.000692527 0)
(1.00226 0.000169789 0)
(1.00305 0.000198191 0)
(1.00373 0.000867653 0)
(1.00398 0.000739021 0)
(1.00368 0.00094077 0)
(1.00398 0.00141708 0)
(1.00497 0.00146624 0)
(1.0057 0.00157075 0)
(1.00621 0.00202147 0)
(1.00709 0.00243944 0)
(1.00834 0.0027539 0)
(1.00958 0.00318586 0)
(1.01071 0.0037485 0)
(1.01172 0.00428736 0)
(1.01249 0.00472584 0)
(1.01262 0.00512672 0)
(0.999992 0.00050974 0)
(1.00075 0.000154295 0)
(1.00139 -0.000418324 0)
(1.00154 0.000707445 0)
(1.00224 0.000433084 0)
(1.00312 0.000323751 0)
(1.00381 0.000929613 0)
(1.00402 0.000957174 0)
(1.00376 0.00109934 0)
(1.00406 0.00147611 0)
(1.00501 0.00156549 0)
(1.00579 0.00166805 0)
(1.00634 0.0020534 0)
(1.0072 0.00243814 0)
(1.00846 0.00272106 0)
(1.00975 0.00308599 0)
(1.01091 0.00357995 0)
(1.01191 0.00407595 0)
(1.01266 0.00447739 0)
(1.01279 0.0048186 0)
(0.999995 0.000478561 0)
(1.00067 0.00015714 0)
(1.00144 -0.000340652 0)
(1.00162 0.000738239 0)
(1.00224 0.00070934 0)
(1.00318 0.00049429 0)
(1.00389 0.000988781 0)
(1.00406 0.00114619 0)
(1.00384 0.00128182 0)
(1.00413 0.00156007 0)
(1.00505 0.00165068 0)
(1.00587 0.00175844 0)
(1.00646 0.00209257 0)
(1.00731 0.00243968 0)
(1.00857 0.00268305 0)
(1.00991 0.00297871 0)
(1.01111 0.00340054 0)
(1.0121 0.0038491 0)
(1.01283 0.00421809 0)
(1.01294 0.00451016 0)
(1 0.000363327 0)
(1.00061 0.000383895 0)
(1.00147 -0.000218084 0)
(1.00171 0.000724015 0)
(1.00224 0.000913341 0)
(1.00322 0.000658828 0)
(1.00398 0.00102057 0)
(1.00413 0.00128553 0)
(1.00391 0.00145343 0)
(1.00419 0.00165803 0)
(1.00509 0.00171619 0)
(1.00595 0.00181499 0)
(1.00657 0.00210619 0)
(1.00741 0.00241841 0)
(1.00866 0.00261917 0)
(1.01004 0.00284238 0)
(1.01128 0.00318625 0)
(1.01228 0.003582 0)
(1.01298 0.00392221 0)
(1.01307 0.00417768 0)
(1.00001 0.000316679 0)
(1.00054 0.00052719 0)
(1.00148 -0.000106628 0)
(1.0018 0.000697478 0)
(1.00225 0.00110321 0)
(1.00324 0.000880524 0)
(1.00406 0.00109887 0)
(1.0042 0.00142031 0)
(1.00397 0.00163468 0)
(1.00423 0.00178675 0)
(1.00512 0.00179295 0)
(1.00601 0.00185465 0)
(1.00667 0.00210769 0)
(1.0075 0.00239173 0)
(1.00873 0.00255844 0)
(1.01014 0.00271049 0)
(1.01143 0.0029683 0)
(1.01245 0.00330071 0)
(1.01312 0.00360907 0)
(1.01318 0.00383617 0)
(1.00002 0.000268038 0)
(1.00048 0.000622367 0)
(1.00147 6.39352e-05 0)
(1.00189 0.000718881 0)
(1.00227 0.00128465 0)
(1.00324 0.00111849 0)
(1.00412 0.00119531 0)
(1.00428 0.0015222 0)
(1.00402 0.00180767 0)
(1.00425 0.00194051 0)
(1.00513 0.00189673 0)
(1.00606 0.00189847 0)
(1.00676 0.0021047 0)
(1.00757 0.00236051 0)
(1.00877 0.00250032 0)
(1.0102 0.00258358 0)
(1.01154 0.0027467 0)
(1.01258 0.00299975 0)
(1.01324 0.00326449 0)
(1.01327 0.00346506 0)
(1.00003 0.000259231 0)
(1.00043 0.000662905 0)
(1.00146 0.000245863 0)
(1.00198 0.000760418 0)
(1.00231 0.00145716 0)
(1.00323 0.00139007 0)
(1.00416 0.00134972 0)
(1.00436 0.00162559 0)
(1.00409 0.0019728 0)
(1.00426 0.00211054 0)
(1.00511 0.00201827 0)
(1.00608 0.00194447 0)
(1.00683 0.00208656 0)
(1.00764 0.00230769 0)
(1.0088 0.00243016 0)
(1.01022 0.00245574 0)
(1.0116 0.00253051 0)
(1.01269 0.00269357 0)
(1.01334 0.00290223 0)
(1.01334 0.00307389 0)
(1.00003 0.000233746 0)
(1.00038 0.000734719 0)
(1.00143 0.000443646 0)
(1.00207 0.000825147 0)
(1.00236 0.00160809 0)
(1.00321 0.00166516 0)
(1.00418 0.00154855 0)
(1.00444 0.00173499 0)
(1.00416 0.00211825 0)
(1.00426 0.00228775 0)
(1.00507 0.00216801 0)
(1.00608 0.00201199 0)
(1.00688 0.00207375 0)
(1.00769 0.0022409 0)
(1.00881 0.00234458 0)
(1.01021 0.00232235 0)
(1.01162 0.00231723 0)
(1.01275 0.00238278 0)
(1.01342 0.00251903 0)
(1.0134 0.00264922 0)
(1.00004 0.000211232 0)
(1.00034 0.000825422 0)
(1.00139 0.000647987 0)
(1.00214 0.000911616 0)
(1.00243 0.00173091 0)
(1.00318 0.00193658 0)
(1.00416 0.00178632 0)
(1.0045 0.00187678 0)
(1.00423 0.00224888 0)
(1.00426 0.00246292 0)
(1.005 0.00233591 0)
(1.00603 0.00210467 0)
(1.0069 0.00206419 0)
(1.00772 0.00215902 0)
(1.00879 0.00222423 0)
(1.01015 0.00216714 0)
(1.01157 0.00208801 0)
(1.01274 0.00206281 0)
(1.01344 0.00211489 0)
(1.01342 0.00219171 0)
(1.00004 0.000233696 0)
(1.00031 0.000883398 0)
(1.00134 0.000851101 0)
(1.0022 0.00103843 0)
(1.00251 0.00184109 0)
(1.00316 0.00218932 0)
(1.00412 0.00203672 0)
(1.00453 0.002031 0)
(1.0043 0.002351 0)
(1.00425 0.00260173 0)
(1.0049 0.00249237 0)
(1.00593 0.00220752 0)
(1.00686 0.00205717 0)
(1.00771 0.00206455 0)
(1.00874 0.00207533 0)
(1.01006 0.00198688 0)
(1.01148 0.00184519 0)
(1.01268 0.00173824 0)
(1.01342 0.00170447 0)
(1.01341 0.00171739 0)
(1.00004 0.000231567 0)
(1.00028 0.000961894 0)
(1.00128 0.00107302 0)
(1.00223 0.00120539 0)
(1.00259 0.00196441 0)
(1.00314 0.00242904 0)
(1.00405 0.00233323 0)
(1.00453 0.00224525 0)
(1.00435 0.00249901 0)
(1.00424 0.002757 0)
(1.00478 0.00268365 0)
(1.00578 0.00235707 0)
(1.00676 0.0021002 0)
(1.00765 0.00199509 0)
(1.00866 0.0019359 0)
(1.00993 0.0017993 0)
(1.01132 0.00160258 0)
(1.01255 0.00141493 0)
(1.01332 0.00129714 0)
(1.01334 0.0012358 0)
(1.00004 0.000262408 0)
(1.00027 0.000999194 0)
(1.00122 0.0012914 0)
(1.00224 0.0014027 0)
(1.00266 0.0021025 0)
(1.00313 0.00266078 0)
(1.00396 0.00264902 0)
(1.00449 0.00250481 0)
(1.00437 0.00267206 0)
(1.00422 0.00290741 0)
(1.00464 0.00286266 0)
(1.00558 0.00251364 0)
(1.00659 0.00216041 0)
(1.00751 0.00193329 0)
(1.00852 0.0017849 0)
(1.00974 0.00158415 0)
(1.0111 0.00133008 0)
(1.01233 0.00106616 0)
(1.01314 0.000865444 0)
(1.0132 0.000728746 0)
(1.00004 0.00031459 0)
(1.00026 0.00103031 0)
(1.00116 0.00149952 0)
(1.00224 0.00163326 0)
(1.00272 0.00225021 0)
(1.00313 0.00287522 0)
(1.00385 0.00295765 0)
(1.0044 0.00278922 0)
(1.00436 0.00286368 0)
(1.00418 0.00305589 0)
(1.00449 0.0030281 0)
(1.00534 0.00267426 0)
(1.00635 0.00224197 0)
(1.00731 0.00189343 0)
(1.00831 0.0016351 0)
(1.00949 0.00135443 0)
(1.01081 0.00102957 0)
(1.01205 0.000690679 0)
(1.01289 0.000405162 0)
(1.01298 0.000189682 0)
(1.00004 0.000340595 0)
(1.00025 0.00112194 0)
(1.00111 0.00171302 0)
(1.0022 0.0018871 0)
(1.00277 0.00243574 0)
(1.00313 0.00309474 0)
(1.00374 0.00328719 0)
(1.00428 0.00312867 0)
(1.0043 0.00312137 0)
(1.00411 0.00325022 0)
(1.00431 0.00322005 0)
(1.00504 0.00286619 0)
(1.00602 0.00236298 0)
(1.00701 0.00189196 0)
(1.00802 0.00150337 0)
(1.00916 0.00111807 0)
(1.01044 0.000704995 0)
(1.01166 0.000281204 0)
(1.01253 -9.77003e-05 0)
(1.01267 -0.000406796 0)
(1.00003 0.000381338 0)
(1.00025 0.00122632 0)
(1.00106 0.00191172 0)
(1.00215 0.00216693 0)
(1.0028 0.00265344 0)
(1.00313 0.00331612 0)
(1.00363 0.00360614 0)
(1.00412 0.00349392 0)
(1.00419 0.00342129 0)
(1.004 0.00347906 0)
(1.00409 0.00343129 0)
(1.0047 0.00307302 0)
(1.00561 0.00251652 0)
(1.00659 0.00192162 0)
(1.0076 0.00139222 0)
(1.00872 0.000872167 0)
(1.00996 0.000350678 0)
(1.01116 -0.000183106 0)
(1.01204 -0.00067241 0)
(1.01223 -0.00108902 0)
(1.00003 0.000437161 0)