/*--------------------------------*- C++ -*----------------------------------*\
| =========                 |                                                 |
| \\      /  F ield         | OpenFOAM: The Open Source CFD Toolbox           |
|  \\    /   O peration     | Version:  v2012                                 |
|   \\  /    A nd           | Website:  www.openfoam.com                      |
|    \\/     M anipulation  |                                                 |
\*---------------------------------------------------------------------------*/
FoamFile
{
    version     2.0;
    format      ascii;
    class       volScalarField;
    location    "1.2";
    object      p;
}
// * * * * * * * * * * * * * * * * * * * * * * * * * * * * * * * * * * * * * //

dimensions      [0 2 -2 0 0 0 0];


internalField   nonuniform List<scalar> 
17600
(
-2.23762e-12
-0.00234353
-0.00326195
-0.00269458
-0.00340742
-0.00345839
-0.00402137
-0.00464204
-0.00507167
-0.00515176
-0.00559877
-0.00583675
-0.00590719
-0.00607052
-0.00577483
-0.00562077
-0.00457372
-0.00343157
-0.00116244
0.00267013
1.44829e-06
-0.00234693
-0.0032614
-0.00269501
-0.00340687
-0.00346018
-0.00401989
-0.00464542
-0.00507008
-0.00515603
-0.00559691
-0.0058456
-0.00590439
-0.00607888
-0.00577036
-0.00563809
-0.00456389
-0.00347345
-0.00114641
0.0023864
2.16808e-06
-0.00235185
-0.00325922
-0.00269581
-0.00340638
-0.0034629
-0.00401746
-0.00464861
-0.00506785
-0.00516079
-0.0055942
-0.00585306
-0.00590124
-0.00609135
-0.00576625
-0.00566265
-0.00455374
-0.00352818
-0.00114466
0.0019614
7.05199e-07
-0.00235656
-0.00325542
-0.00269648
-0.00340645
-0.00346589
-0.0040147
-0.004652
-0.00506561
-0.00516595
-0.00559154
-0.00586102
-0.00589936
-0.00610485
-0.00576477
-0.00568726
-0.00454913
-0.00357948
-0.00117431
0.00154922
-2.77375e-06
-0.00236073
-0.00325015
-0.00269718
-0.00340717
-0.00346925
-0.00401169
-0.00465576
-0.00506334
-0.00517168
-0.0055888
-0.00587
-0.00589753
-0.00611966
-0.00576357
-0.00571286
-0.00454742
-0.00363007
-0.00123739
0.00116743
-7.88185e-06
-0.00236422
-0.00324369
-0.0026982
-0.00340844
-0.00347299
-0.00400839
-0.0046599
-0.00506092
-0.00517791
-0.00558579
-0.00587978
-0.00589533
-0.00613567
-0.00576217
-0.00573988
-0.0045486
-0.00368302
-0.00133296
0.00081225
-1.42668e-05
-0.00236697
-0.00323644
-0.00269963
-0.00341001
-0.00347704
-0.0040048
-0.00466438
-0.00505827
-0.00518455
-0.00558246
-0.00589023
-0.00589295
-0.00615251
-0.0057617
-0.00576744
-0.00455565
-0.00373855
-0.00145939
0.000477051
-2.15478e-05
-0.00236904
-0.00322872
-0.0027014
-0.00341161
-0.00348138
-0.00400095
-0.00466919
-0.00505538
-0.00519158
-0.00557887
-0.00590136
-0.00589062
-0.00617001
-0.00576321
-0.00579464
-0.0045717
-0.00379523
-0.00161544
0.000154084
-2.93696e-05
-0.00237058
-0.0032207
-0.00270339
-0.00341309
-0.00348598
-0.00399682
-0.00467433
-0.00505229
-0.00519901
-0.00557512
-0.00591315
-0.00588863
-0.00618795
-0.0057676
-0.00582077
-0.00459883
-0.00385228
-0.00179974
-0.000163717
-3.74781e-05
-0.00237178
-0.00321243
-0.00270549
-0.00341438
-0.00349085
-0.00399243
-0.00467982
-0.00504903
-0.00520682
-0.0055713
-0.00592545
-0.00588734
-0.00620584
-0.00577583
-0.00584521
-0.00463849
-0.00390956
-0.00200936
-0.000482114
-4.57321e-05
-0.00237284
-0.00320391
-0.00270764
-0.00341549
-0.00349598
-0.0039878
-0.00468566
-0.00504564
-0.00521493
-0.00556754
-0.00593803
-0.00588725
-0.00622303
-0.0057889
-0.00586746
-0.00469186
-0.00397041
-0.00223967
-0.000805581
-5.40679e-05
-0.00237387
-0.00319506
-0.00270981
-0.00341642
-0.00350137
-0.00398295
-0.00469183
-0.00504217
-0.00522322
-0.00556403
-0.00595056
-0.00588889
-0.00623894
-0.00580774
-0.00588728
-0.00475954
-0.0040375
-0.0024852
-0.00113714
-6.24599e-05
-0.00237499
-0.00318602
-0.00271195
-0.00341721
-0.00350698
-0.00397791
-0.00469828
-0.00503871
-0.00523154
-0.00556099
-0.00596266
-0.00589284
-0.00625316
-0.00583298
-0.00590509
-0.0048412
-0.00411439
-0.00274082
-0.00147828
-7.08998e-05
-0.00237621
-0.00317674
-0.00271402
-0.00341787
-0.00351278
-0.00397272
-0.00470493
-0.00503538
-0.00523966
-0.00555874
-0.00597386
-0.00589963
-0.00626541
-0.00586504
-0.00592233
-0.00493531
-0.00420429
-0.00300254
-0.00182917
-7.93888e-05
-0.00237756
-0.00316724
-0.00271597
-0.00341843
-0.00351872
-0.00396744
-0.00471167
-0.00503236
-0.0052473
-0.00555767
-0.00598379
-0.00590969
-0.00627545
-0.00590426
-0.00594146
-0.00503961
-0.00430968
-0.00326789
-0.00218896
-8.79371e-05
-0.00237899
-0.00315757
-0.00271774
-0.00341893
-0.00352472
-0.00396218
-0.00471835
-0.00502987
-0.00525415
-0.00555808
-0.00599221
-0.00592327
-0.00628346
-0.00595043
-0.00596568
-0.00515227
-0.00443261
-0.00353564
-0.00255586
-9.6565e-05
-0.00238046
-0.00314777
-0.00271923
-0.00341944
-0.00353071
-0.00395705
-0.00472479
-0.00502815
-0.00525991
-0.00556021
-0.00599902
-0.0059405
-0.00629036
-0.00600252
-0.00599685
-0.00527246
-0.00457433
-0.0038054
-0.00292751
-0.000105303
-0.00238188
-0.00313792
-0.00272036
-0.00342002
-0.00353655
-0.00395221
-0.00473075
-0.00502747
-0.00526434
-0.00556417
-0.00600414
-0.00596132
-0.00629729
-0.00605922
-0.00603649
-0.0054
-0.00473516
-0.00407776
-0.00330136
-0.000114193
-0.00238316
-0.00312809
-0.00272099
-0.0034208
-0.00354211
-0.00394785
-0.00473601
-0.00502805
-0.00526728
-0.00556998
-0.00600782
-0.00598525
-0.00630678
-0.0061196
-0.0060859
-0.00553514
-0.00491491
-0.00435426
-0.003675
-0.000123291
-0.00238416
-0.0031184
-0.00272098
-0.0034219
-0.00354723
-0.00394417
-0.00474036
-0.00503002
-0.00526865
-0.00557758
-0.00601079
-0.00601128
-0.00631944
-0.00618342
-0.00614611
-0.00567829
-0.00511306
-0.00463694
-0.00404684
-0.000132672
-0.00238469
-0.00310895
-0.00272015
-0.00342349
-0.00355174
-0.00394133
-0.00474369
-0.00503341
-0.00526858
-0.00558669
-0.00601386
-0.00603836
-0.00633592
-0.0062511
-0.00621783
-0.00582974
-0.00532849
-0.00492785
-0.00441667
-0.000142428
-0.00238455
-0.00309988
-0.00271829
-0.00342574
-0.00355552
-0.00393939
-0.00474593
-0.00503806
-0.00526748
-0.00559657
-0.00601836
-0.00606599
-0.00635663
-0.0063235
-0.00630199
-0.00599011
-0.00555974
-0.00522864
-0.00478581
-0.000152677
-0.00238345
-0.00309143
-0.00271519
-0.00342878
-0.0035585
-0.00393841
-0.00474716
-0.00504368
-0.005266
-0.00560612
-0.00602475
-0.00609424
-0.00638137
-0.00640128
-0.00639987
-0.00616066
-0.00580531
-0.00554029
-0.00515672
-0.000163575
-0.00238107
-0.0030839
-0.00271068
-0.00343264
-0.00356071
-0.00393835
-0.00474764
-0.00504974
-0.00526497
-0.00561447
-0.00603318
-0.0061237
-0.0064098
-0.00648448
-0.00651251
-0.00634307
-0.00606401
-0.00586286
-0.0055325
-0.000175317
-0.002377
-0.00307745
-0.0027046
-0.00343738
-0.00356228
-0.00393894
-0.00474797
-0.00505545
-0.00526503
-0.00562128
-0.00604317
-0.00615556
-0.00644236
-0.00657294
-0.00664015
-0.00653882
-0.00633496
-0.00619554
-0.00591596
-0.00018814
-0.0023708
-0.00307225
-0.00269679
-0.00344298
-0.00356337
-0.00393975
-0.00474902
-0.00506002
-0.00526649
-0.00562656
-0.00605389
-0.00619096
-0.0064802
-0.00666693
-0.00678255
-0.00674885
-0.00661745
-0.00653716
-0.00630789
-0.000202322
-0.00236194
-0.00306847
-0.00268723
-0.00344919
-0.00356444
-0.00393988
-0.00475157
-0.00506247
-0.00526939
-0.0056311
-0.00606439
-0.00623064
-0.00652514
-0.00676749
-0.00693956
-0.00697332
-0.00691057
-0.00688564
-0.00670556
-0.000218208
-0.0023498
-0.00306618
-0.0026761
-0.00345553
-0.00356623
-0.00393826
-0.0047562
-0.0050628
-0.00527305
-0.00563651
-0.00607432
-0.00627542
-0.00658091
-0.00687644
-0.00711022
-0.00721136
-0.00721332
-0.0072387
-0.00710492
-0.000236182
-0.00233385
-0.00306523
-0.00266371
-0.00346147
-0.00356718
-0.0039336
-0.00476303
-0.00506136
-0.00527616
-0.00564479
-0.00608354
-0.0063264
-0.00665171
-0.00699529
-0.00729102
-0.00746053
-0.0075252
-0.00759564
-0.00750293
-0.000256653
-0.00231359
-0.00306527
-0.00265064
-0.00346613
-0.00357382
-0.00392536
-0.00477178
-0.00505946
-0.00527749
-0.0056576
-0.00609636
-0.00638438
-0.00673869
-0.00712366
-0.00747697
-0.00771712
-0.00784597
-0.00795759
-0.00789827
-0.000280022
-0.00228855
-0.00306581
-0.00263775
-0.00346828
-0.00358479
-0.00391338
-0.00478173
-0.00505919
-0.00527686
-0.00567709
-0.00611757
-0.00644891
-0.00684024
-0.00726091
-0.00766457
-0.00797709
-0.00817469
-0.00832619
-0.00829034
-0.000306597
-0.00225836
-0.003066
-0.00262598
-0.00346701
-0.00360293
-0.00389799
-0.00479189
-0.00506252
-0.00527489
-0.00570487
-0.00614936
-0.00651703
-0.00695202
-0.00740765
-0.00785349
-0.00823697
-0.00850897
-0.00870131
-0.00867961
-0.000336493
-0.00222277
-0.00306479
-0.00261612
-0.00346178
-0.00362267
-0.00388061
-0.00480152
-0.00506968
-0.00527343
-0.00574126
-0.00619312
-0.0065859
-0.00706862
-0.00756459
-0.0080463
-0.00849457
-0.00884488
-0.00908114
-0.00906705
-0.000369701
-0.00217593
-0.00306104
-0.00260858
-0.00345232
-0.00364641
-0.00386294
-0.00481011
-0.00508416
-0.00527431
-0.00578551
-0.00624935
-0.00665518
-0.00718491
-0.00773114
-0.008247
-0.00874965
-0.00917761
-0.00946251
-0.00945326
-0.000406451
-0.00213259
-0.00305339
-0.00260336
-0.00343874
-0.00367451
-0.00384709
-0.00481719
-0.00511
-0.00527862
-0.00582974
-0.00631798
-0.00672708
-0.00729765
-0.00790493
-0.00845867
-0.00900438
-0.0095032
-0.00984137
-0.00983815
-0.000446932
-0.0020864
-0.00304052
-0.00260005
-0.00342129
-0.00370705
-0.00383457
-0.00482264
-0.00515101
-0.00528775
-0.0058713
-0.00639721
-0.00680527
-0.00740627
-0.00808212
-0.00868201
-0.00926183
-0.00981988
-0.0102135
-0.0102208
-0.000490893
-0.00203828
-0.00302173
-0.002598
-0.00340007
-0.00374404
-0.00382816
-0.00482628
-0.00520841
-0.00530412
-0.0059066
-0.00648364
-0.0068933
-0.00751209
-0.00825826
-0.00891517
-0.00952485
-0.0101282
-0.0105753
-0.0105989
-0.00053788
-0.0019892
-0.00299712
-0.00259686
-0.00337492
-0.00378533
-0.00383072
-0.00482733
-0.00527619
-0.00533053
-0.0059342
-0.00657298
-0.00699346
-0.0076178
-0.00842947
-0.00915455
-0.00979562
-0.0104305
-0.0109236
-0.0109689
-0.000587359
-0.00194005
-0.00296726
-0.00259681
-0.00334541
-0.00383005
-0.00384518
-0.00482536
-0.00534699
-0.00537
-0.0059551
-0.00666052
-0.00710634
-0.00772686
-0.00859315
-0.00939535
-0.0100747
-0.0107298
-0.011257
-0.0113264
-0.000638716
-0.00189162
-0.00293296
-0.00259822
-0.00331129
-0.00387633
-0.00387418
-0.00482135
-0.00542033
-0.00542481
-0.00597241
-0.00674203
-0.00723077
-0.00784288
-0.00874849
-0.00963228
-0.0103602
-0.0110287
-0.0115758
-0.0116669
-0.000691435
-0.00184443
-0.00289509
-0.00260213
-0.00327297
-0.00392133
-0.00391869
-0.00481725
-0.00549238
-0.00549541
-0.00599094
-0.006815
-0.00736383
-0.00796912
-0.00889696
-0.00986052
-0.010648
-0.0113289
-0.0118818
-0.0119875
-0.000745066
-0.00179889
-0.00285422
-0.00261016
-0.00323156
-0.00396168
-0.00397834
-0.00481581
-0.00556331
-0.00558072
-0.00601601
-0.00687869
-0.00750106
-0.0081078
-0.00904234
-0.0100766
-0.0109324
-0.0116302
-0.0121779
-0.0122875
-0.000799188
-0.00175534
-0.00281071
-0.00262364
-0.00318886
-0.00399491
-0.00405131
-0.00481992
-0.00562388
-0.00567846
-0.00605181
-0.0069335
-0.00763745
-0.00825955
-0.00918955
-0.0102791
-0.0112075
-0.0119304
-0.0124672
-0.0125688
-0.000853416
-0.00171406
-0.00276489
-0.00264356
-0.00314714
-0.00401935
-0.00413439
-0.00483223
-0.00567529
-0.0057846
-0.00610063
-0.00698095
-0.00776845
-0.00842284
-0.00934241
-0.0104687
-0.0114682
-0.0122263
-0.0127517
-0.0128344
-0.000907349
-0.00167545
-0.0027169
-0.00267103
-0.00311719
-0.00403373
-0.00422308
-0.00485497
-0.00571886
-0.00589428
-0.00616323
-0.00702396
-0.00789046
-0.00859373
-0.00950289
-0.0106477
-0.0117114
-0.0125135
-0.0130322
-0.0130877
-0.000960597
-0.00164026
-0.00266677
-0.00270645
-0.00309927
-0.00403816
-0.00431221
-0.00488879
-0.00575658
-0.00600362
-0.00623987
-0.00706621
-0.00800068
-0.00876641
-0.00967101
-0.0108193
-0.0119357
-0.0127873
-0.0133068
-0.0133314
-0.00101292
-0.00160931
-0.00261465
-0.0027493
-0.00309737
-0.00403471
-0.00439695
-0.00493307
-0.00579039
-0.00610992
-0.00632983
-0.00711131
-0.00809757
-0.00893436
-0.00984493
-0.0109868
-0.0121415
-0.0130436
-0.0135727
-0.0135669
-0.00106413
-0.00158364
-0.00256116
-0.00279836
-0.00311442
-0.00402715
-0.00447338
-0.00498555
-0.00582196
-0.00621069
-0.00643095
-0.00716243
-0.00818155
-0.00909188
-0.010021
-0.011152
-0.0123302
-0.0132789
-0.0138254
-0.013794
-0.0011137
-0.00156448
-0.00250783
-0.00285063
-0.00315219
-0.00402264
-0.00453967
-0.00504216
-0.0058522
-0.00630356
-0.00653977
-0.00722209
-0.0082551
-0.00923515
-0.0101944
-0.0113148
-0.012503
-0.0134909
-0.0140607
-0.0140111
-0.00116121
-0.00155271
-0.00245729
-0.0029017
-0.00321082
-0.00402809
-0.00459539
-0.00509921
-0.00588149
-0.00638689
-0.0066518
-0.00729102
-0.00832152
-0.0093622
-0.0103598
-0.0114731
-0.0126608
-0.0136783
-0.0142746
-0.0142155
-0.00120684
-0.00154895
-0.00241212
-0.00294944
-0.00328746
-0.00404743
-0.00464377
-0.00515523
-0.00590977
-0.00645948
-0.00676193
-0.00736746
-0.00838334
-0.00947243
-0.0105127
-0.0116238
-0.0128039
-0.0138407
-0.0144636
-0.0144037
-0.00125119
-0.0015538
-0.00237138
-0.00299281
-0.00337686
-0.00408315
-0.00468991
-0.00520924
-0.00593699
-0.0065208
-0.00686564
-0.00744801
-0.00844153
-0.00956579
-0.0106491
-0.0117636
-0.012932
-0.013978
-0.0146245
-0.0145712
-0.00129504
-0.00156809
-0.00234548
-0.00303257
-0.00347339
-0.00413553
-0.00473807
-0.00526108
-0.0059635
-0.0065716
-0.00695956
-0.0075282
-0.00849509
-0.00964165
-0.0107653
-0.011889
-0.0130439
-0.0140897
-0.0147546
-0.014713
-0.00133959
-0.00159205
-0.00233313
-0.00307067
-0.00357264
-0.00420318
-0.00479128
-0.00531214
-0.00598984
-0.00661358
-0.00704143
-0.0076032
-0.00854139
-0.00969849
-0.0108581
-0.0119956
-0.0131374
-0.0141752
-0.0148511
-0.0148233
-0.00138657
-0.00162547
-0.00233558
-0.00310973
-0.00367216
-0.00428309
-0.0048509
-0.00536434
-0.00601667
-0.00664802
-0.00711019
-0.00766877
-0.00857709
-0.00973413
-0.0109234
-0.0120779
-0.0132089
-0.0142327
-0.0149116
-0.0148969
-0.00143817
-0.00166865
-0.00235336
-0.00315224
-0.0037709
-0.00437236
-0.00491743
-0.00541877
-0.00604462
-0.0066757
-0.00716531
-0.00772191
-0.00859882
-0.0097457
-0.0109567
-0.0121289
-0.0132529
-0.0142592
-0.0149341
-0.0149297
-0.00149673
-0.00172237
-0.00238669
-0.00320035
-0.00386883
-0.0044691
-0.0049913
-0.00547555
-0.00607364
-0.00669724
-0.00720631
-0.00776037
-0.00860359
-0.00972983
-0.0109528
-0.0121414
-0.013262
-0.0142511
-0.0149165
-0.0149195
-0.00156432
-0.00178791
-0.00243527
-0.00325571
-0.00396673
-0.00457257
-0.00507325
-0.00553486
-0.00610285
-0.00671275
-0.00723257
-0.00778139
-0.00858794
-0.00968311
-0.0109062
-0.0121082
-0.0132288
-0.0142038
-0.0148574
-0.0148624
-0.00164298
-0.00186657
-0.0024999
-0.00331991
-0.00406541
-0.00468224
-0.00516419
-0.00559794
-0.00613151
-0.00672126
-0.00724305
-0.0077817
-0.0085476
-0.00960166
-0.0108121
-0.0120219
-0.0131455
-0.0141103
-0.014752
-0.0147564
-0.00173499
-0.00195909
-0.00258137
-0.00339565
-0.00416633
-0.00479718
-0.00526422
-0.00566634
-0.00615992
-0.00672191
-0.00723657
-0.00775847
-0.00847821
-0.00948058
-0.0106647
-0.011874
-0.013001
-0.0139596
-0.0145911
-0.0145949
-0.00184293
-0.00206702
-0.00267971
-0.00348473
-0.00427167
-0.00491688
-0.00537354
-0.00574217
-0.0061893
-0.00671491
-0.00721206
-0.00770916
-0.00837544
-0.00931392
-0.0104565
-0.0116536
-0.0127804
-0.0137355
-0.0143604
-0.0143651
-0.0019691
-0.00219256
-0.00279618
-0.00358876
-0.00438329
-0.0050416
-0.00549249
-0.00582818
-0.00622207
-0.00670119
-0.00716884
-0.00763091
-0.00823414
-0.00909451
-0.0101775
-0.011346
-0.0124647
-0.0134165
-0.0140396
-0.0140496
-0.00211573
-0.00233696
-0.00293206
-0.00371083
-0.00450404
-0.0051725
-0.00562204
-0.00592694
-0.00626256
-0.00668321
-0.00710769
-0.00752142
-0.00804856
-0.00881346
-0.00981412
-0.0109318
-0.0120279
-0.0129727
-0.0135976
-0.0136198
-0.00228562
-0.00250198
-0.00308803
-0.00385277
-0.00463752
-0.0053112
-0.00576412
-0.00604228
-0.00631694
-0.00666713
-0.00703242
-0.00738169
-0.0078145
-0.00846005
-0.00934687
-0.0103843
-0.0114346
-0.0123596
-0.0129862
-0.0130259
-0.00248085
-0.00269007
-0.00326562
-0.00401637
-0.00478712
-0.00545972
-0.00591975
-0.00617889
-0.00639333
-0.00666316
-0.00695152
-0.00721873
-0.00753285
-0.00802166
-0.00874751
-0.00966324
-0.010637
-0.0115247
-0.0121431
-0.012213
-0.00270489
-0.00290413
-0.00346726
-0.00420376
-0.00495623
-0.0056222
-0.00608908
-0.00633949
-0.0065019
-0.00668447
-0.00687965
-0.00704743
-0.00722037
-0.00750133
-0.00799406
-0.00870291
-0.00954
-0.0103495
-0.0109569
-0.0110881
-0.00295933
-0.00314901
-0.00369712
-0.00441637
-0.00514862
-0.00580289
-0.0062745
-0.00652471
-0.00664879
-0.00674965
-0.00683693
-0.00688467
-0.00690973
-0.0069497
-0.00708769
-0.00742681
-0.00796663
-0.00860927
-0.00918195
-0.00944915
-0.00323684
-0.00342838
-0.00396044
-0.00465768
-0.00536687
-0.00600618
-0.00648129
-0.00673673
-0.00683551
-0.00687228
-0.00685544
-0.00674541
-0.00659695
-0.00645061
-0.00623929
-0.0059105
-0.00554449
-0.00533376
-0.00542629
-0.00571129
-0.00354053
-0.00374512
-0.00425975
-0.00492996
-0.00561343
-0.0062383
-0.00671462
-0.00698079
-0.00706486
-0.00705927
-0.00696684
-0.00670835
-0.00626373
-0.00585235
-0.00572172
-0.00560658
-0.00485138
-0.00311543
-0.00104117
0.00054151
-0.0038847
-0.00409668
-0.00459223
-0.00523179
-0.0058935
-0.00650057
-0.00697927
-0.00725875
-0.00733397
-0.00726981
-0.00713311
-0.00688519
-0.00611758
-0.00453365
-0.00268802
-0.00103135
0.00038197
0.00168607
0.00281137
0.00339006
-0.004277
-0.00448277
-0.00495308
-0.00556557
-0.00620637
-0.00679181
-0.00726473
-0.00754967
-0.00762
-0.00742165
-0.00666063
-0.00524423
-0.00354753
-0.0018832
-0.000415314
0.000865369
0.00200982
0.00303214
0.00379823
0.00397573
-0.00471812
-0.00490475
-0.00534259
-0.00593067
-0.00654185
-0.00710064
-0.00752807
-0.00770608
-0.00742932
-0.00650791
-0.00518792
-0.00371739
-0.00227541
-0.00091802
0.000403848
0.0017032
0.00293491
0.00399984
0.0047086
0.0047487
-0.00519412
-0.00536294
-0.00576598
-0.00631243
-0.00687362
-0.00734849
-0.0075919
-0.00736144
-0.006593
-0.00546441
-0.00418066
-0.00288493
-0.00157732
-0.000229461
0.00114734
0.00251236
0.00379834
0.00488142
0.00556068
0.00551977
-0.00568994
-0.00586037
-0.00621535
-0.00667712
-0.00711771
-0.00737314
-0.00725857
-0.00673938
-0.00587224
-0.0047742
-0.00356264
-0.00229226
-0.000969268
0.000411135
0.00182855
0.00323285
0.00453957
0.00561458
0.00624772
0.00612096
-0.00620099
-0.00637583
-0.00665659
-0.00697324
-0.00719581
-0.00715843
-0.00683131
-0.00621817
-0.00534638
-0.00427843
-0.00307332
-0.00178027
-0.000423667
0.00098444
0.00242063
0.00383092
0.00512464
0.00616314
0.00673583
0.00652868
-0.00670827
-0.00686202
-0.00703723
-0.00716789
-0.00714553
-0.00692075
-0.00647193
-0.00580129
-0.00492353
-0.00385753
-0.0026465
-0.00133508
4.3596e-05
0.00146489
0.00289897
0.00429319
0.00555946
0.0065597
0.00708371
0.00681927
-0.00717676
-0.007288
-0.00733417
-0.00727721
-0.007084
-0.00672915
-0.00619327
-0.00547496
-0.00457435
-0.00349877
-0.00227983
-0.000959391
0.000429013
0.0018537
0.00328017
0.00465652
0.00589735
0.00686634
0.00735409
0.00704925
-0.00758312
-0.00764197
-0.00754765
-0.00733957
-0.00702471
-0.00658592
-0.00599547
-0.00523603
-0.00430385
-0.00320975
-0.00198068
-0.000655185
0.000732793
0.00215501
0.00357515
0.00493852
0.00616023
0.00710585
0.00756719
0.00723395
-0.0079024
-0.00791897
-0.0077187
-0.00738813
-0.00697245
-0.00646993
-0.0058453
-0.00506292
-0.00411182
-0.00300157
-0.00175812
-0.000415815
0.000986145
0.00241116
0.00382577
0.00517936
0.00638729
0.00731537
0.00775738
0.0074043
-0.00810422
-0.00810845
-0.00787136
-0.00748456
-0.00700497
-0.00644172
-0.00576873
-0.00496268
-0.00400236
-0.00288787
-0.00163836
-0.000286149
0.00113269
0.00258208
0.00401663
0.00537846
0.00658381
0.0075027
0.00793133
0.00756772
0.00707459
0.00211958
-0.0052471
-0.0104288
-0.0115447
-0.0103097
-0.0087887
-0.00773154
-0.00714408
-0.00685927
-0.00674702
-0.0067372
-0.00679215
-0.00688703
-0.00700391
-0.00712915
-0.0072521
-0.00736638
-0.00747075
-0.00756677
-0.00765637
-0.0077416
-0.00782487
-0.0079084
-0.00799355
-0.00808083
-0.00817027
-0.00826237
-0.00835819
-0.00845833
-0.00856205
-0.00866788
-0.00877464
-0.00888192
-0.00898992
-0.00909863
-0.0092072
-0.00931399
-0.0094175
-0.00951733
-0.0096141
-0.0097083
-0.00979989
-0.00988874
-0.00997531
-0.0100606
-0.0101455
-0.0102306
-0.010316
-0.0104014
-0.0104862
-0.0105698
-0.0106515
-0.010731
-0.0108084
-0.010884
-0.0109585
-0.0110326
-0.0111068
-0.0111814
-0.0112563
-0.0113313
-0.011406
-0.0114801
-0.0115533
-0.0116259
-0.0116981
-0.0117705
-0.0118432
-0.0119159
-0.0119885
-0.0120607
-0.0121326
-0.0122045
-0.0122764
-0.0123483
-0.0124201
-0.0124917
-0.0125633
-0.0126351
-0.012707
-0.0127789
-0.012851
-0.0129235
-0.0129964
-0.0130695
-0.0131427
-0.0132163
-0.0132905
-0.0133654
-0.0134404
-0.0135154
-0.0135905
-0.0136666
-0.0137436
-0.0138211
-0.013898
-0.0139744
-0.0140505
-0.0141274
-0.0142051
-0.0142831
-0.0143603
-0.0144366
-0.0145124
-0.0145884
-0.0146647
-0.0147407
-0.0148163
-0.0148909
-0.014965
-0.0150383
-0.0151115
-0.0151843
-0.0152572
-0.0153292
-0.0154004
-0.0154704
-0.0155405
-0.0156107
-0.0156808
-0.0157498
-0.0158179
-0.0158856
-0.0159533
-0.0160212
-0.0160885
-0.0161551
-0.0162212
-0.0162874
-0.0163534
-0.0164194
-0.0164851
-0.0165501
-0.0166148
-0.0166801
-0.0167455
-0.0168101
-0.0168742
-0.0169392
-0.0170043
-0.017069
-0.0171334
-0.0171985
-0.0172637
-0.017329
-0.0173941
-0.0174598
-0.0175255
-0.0175916
-0.0176577
-0.0177244
-0.0177909
-0.017858
-0.0179251
-0.0179928
-0.0180605
-0.0181286
-0.0181969
-0.0182655
-0.0183345
-0.0184036
-0.0184732
-0.0185428
-0.0186132
-0.0186833
-0.0187543
-0.0188252
-0.0188968
-0.0189686
-0.0190408
-0.0191137
-0.0191866
-0.0192606
-0.0193345
-0.0194092
-0.0194846
-0.0195598
-0.0196367
-0.0197127
-0.0197904
-0.0198682
-0.0199461
-0.0200259
-0.0201043
-0.0201855
-0.0202652
-0.0203471
-0.0204283
-0.0205112
-0.0205937
-0.0206767
-0.0207622
-0.0208431
-0.0209297
-0.0210124
-0.0210895
-0.0211749
-0.0212362
-0.0212938
0.00628418
0.00193453
-0.00516946
-0.0102958
-0.011465
-0.0102715
-0.00876468
-0.00771447
-0.00713168
-0.00684977
-0.00673929
-0.00673063
-0.00678642
-0.00688196
-0.00699936
-0.00712506
-0.0072484
-0.00736303
-0.00746769
-0.00756397
-0.00765379
-0.00773921
-0.00782265
-0.00790632
-0.00799161
-0.008079
-0.00816856
-0.00826075
-0.00835665
-0.00845687
-0.00856066
-0.00866657
-0.00877339
-0.00888073
-0.00898878
-0.00909754
-0.00920616
-0.009313
-0.00941655
-0.00951642
-0.00961322
-0.00970746
-0.00979909
-0.00988798
-0.00997458
-0.0100599
-0.0101448
-0.0102299
-0.0103154
-0.0104008
-0.0104857
-0.0105693
-0.010651
-0.0107305
-0.0108079
-0.0108835
-0.010958
-0.0110321
-0.0111064
-0.011181
-0.0112559
-0.0113309
-0.0114057
-0.0114797
-0.011553
-0.0116256
-0.0116978
-0.0117702
-0.0118429
-0.0119156
-0.0119882
-0.0120604
-0.0121323
-0.0122042
-0.0122761
-0.0123481
-0.0124199
-0.0124915
-0.0125631
-0.0126348
-0.0127067
-0.0127787
-0.0128508
-0.0129232
-0.0129962
-0.0130693
-0.0131425
-0.0132161
-0.0132904
-0.0133653
-0.0134403
-0.0135152
-0.0135904
-0.0136664
-0.0137434
-0.0138209
-0.0138978
-0.0139742
-0.0140504
-0.0141273
-0.0142049
-0.0142829
-0.0143601
-0.0144365
-0.0145123
-0.0145883
-0.0146646
-0.0147406
-0.0148162
-0.0148908
-0.0149649
-0.0150382
-0.0151114
-0.0151842
-0.0152571
-0.0153291
-0.0154003
-0.0154703
-0.0155404
-0.0156107
-0.0156807
-0.0157497
-0.0158178
-0.0158855
-0.0159533
-0.0160211
-0.0160884
-0.0161551
-0.0162212
-0.0162873
-0.0163534
-0.0164194
-0.0164851
-0.0165501
-0.0166148
-0.01668
-0.0167455
-0.01681
-0.0168742
-0.0169391
-0.0170043
-0.017069
-0.0171334
-0.0171985
-0.0172637
-0.0173289
-0.0173941
-0.0174598
-0.0175255
-0.0175916
-0.0176576
-0.0177244
-0.0177909
-0.017858
-0.0179251
-0.0179928
-0.0180605
-0.0181286
-0.0181969
-0.0182655
-0.0183345
-0.0184036
-0.0184732
-0.0185428
-0.0186132
-0.0186833
-0.0187543
-0.0188252
-0.0188968
-0.0189686
-0.0190408
-0.0191137
-0.0191866
-0.0192606
-0.0193345
-0.0194092
-0.0194846
-0.0195598
-0.0196367
-0.0197127
-0.0197904
-0.0198682
-0.0199461
-0.0200259
-0.0201043
-0.0201855
-0.0202652
-0.0203471
-0.0204283
-0.0205112
-0.0205937
-0.0206767
-0.0207622
-0.0208431
-0.0209297
-0.0210124
-0.0210895
-0.0211749
-0.0212362
-0.0212938
0.00546612
0.00175439
-0.00499392
-0.0100424
-0.0113198
-0.0102135
-0.00873349
-0.00769082
-0.00711324
-0.00683567
-0.00672838
-0.00672196
-0.00677931
-0.00687596
-0.00699416
-0.00712046
-0.0072443
-0.00735933
-0.00746435
-0.00756095
-0.00765104
-0.00773668
-0.00782032
-0.00790416
-0.0079896
-0.00807713
-0.00816681
-0.0082591
-0.0083551
-0.00845541
-0.00855928
-0.00866525
-0.00877215
-0.00887956
-0.00898766
-0.00909648
-0.00920514
-0.00931202
-0.00941562
-0.00951553
-0.00961237
-0.00970664
-0.0097983
-0.00988722
-0.00997386
-0.0100592
-0.0101441
-0.0102293
-0.0103148
-0.0104002
-0.0104851
-0.0105687
-0.0106505
-0.01073
-0.0108074
-0.010883
-0.0109576
-0.0110317
-0.011106
-0.0111806
-0.0112555
-0.0113306
-0.0114053
-0.0114794
-0.0115526
-0.0116252
-0.0116975
-0.0117699
-0.0118426
-0.0119153
-0.0119879
-0.0120601
-0.0121321
-0.0122039
-0.0122759
-0.0123478
-0.0124196
-0.0124912
-0.0125628
-0.0126346
-0.0127065
-0.0127784
-0.0128505
-0.012923
-0.012996
-0.0130691
-0.0131423
-0.0132159
-0.0132902
-0.0133651
-0.0134401
-0.0135151
-0.0135902
-0.0136663
-0.0137433
-0.0138208
-0.0138977
-0.0139741
-0.0140502
-0.0141272
-0.0142048
-0.0142828
-0.01436
-0.0144364
-0.0145122
-0.0145882
-0.0146645
-0.0147405
-0.0148161
-0.0148907
-0.0149648
-0.0150381
-0.0151113
-0.0151841
-0.015257
-0.0153291
-0.0154002
-0.0154703
-0.0155404
-0.0156106
-0.0156807
-0.0157497
-0.0158178
-0.0158855
-0.0159532
-0.0160211
-0.0160884
-0.016155
-0.0162212
-0.0162873
-0.0163533
-0.0164193
-0.0164851
-0.0165501
-0.0166148
-0.01668
-0.0167455
-0.01681
-0.0168742
-0.0169391
-0.0170043
-0.0170689
-0.0171334
-0.0171985
-0.0172637
-0.0173289
-0.0173941
-0.0174598
-0.0175255
-0.0175916
-0.0176576
-0.0177244
-0.0177909
-0.017858
-0.0179251
-0.0179928
-0.0180605
-0.0181286
-0.0181969
-0.0182655
-0.0183345
-0.0184036
-0.0184732
-0.0185428
-0.0186131
-0.0186833
-0.0187543
-0.0188252
-0.0188968
-0.0189686
-0.0190408
-0.0191137
-0.0191866
-0.0192606
-0.0193345
-0.0194092
-0.0194846
-0.0195598
-0.0196367
-0.0197127
-0.0197904
-0.0198682
-0.0199461
-0.0200259
-0.0201043
-0.0201855
-0.0202652
-0.0203471
-0.0204283
-0.0205112
-0.0205937
-0.0206767
-0.0207622
-0.0208431
-0.0209297
-0.0210124
-0.0210895
-0.0211749
-0.0212362
-0.0212938
0.00469452
0.00159627
-0.00474761
-0.00970611
-0.0111176
-0.010131
-0.00868929
-0.00765556
-0.0070848
-0.00681411
-0.00671227
-0.00670971
-0.00676969
-0.00686809
-0.00698747
-0.0071146
-0.00723907
-0.00735464
-0.00746014
-0.00755717
-0.00764765
-0.00773363
-0.00781755
-0.00790162
-0.00798727
-0.00807498
-0.00816482
-0.00825727
-0.0083534
-0.00845381
-0.00855777
-0.00866383
-0.00877081
-0.0088783
-0.00898648
-0.00909536
-0.00920408
-0.00931101
-0.00941465
-0.00951461
-0.00961148
-0.00970578
-0.00979747
-0.00988642
-0.00997308
-0.0100584
-0.0101434
-0.0102286
-0.0103141
-0.0103996
-0.0104845
-0.0105682
-0.01065
-0.0107295
-0.0108069
-0.0108826
-0.0109571
-0.0110313
-0.0111055
-0.0111802
-0.0112552
-0.0113302
-0.011405
-0.011479
-0.0115523
-0.0116249
-0.0116972
-0.0117696
-0.0118423
-0.011915
-0.0119876
-0.0120599
-0.0121318
-0.0122037
-0.0122756
-0.0123476
-0.0124194
-0.012491
-0.0125626
-0.0126344
-0.0127063
-0.0127782
-0.0128503
-0.0129228
-0.0129958
-0.0130689
-0.0131421
-0.0132157
-0.01329
-0.0133649
-0.0134399
-0.0135149
-0.01359
-0.0136661
-0.0137431
-0.0138206
-0.0138975
-0.013974
-0.0140501
-0.014127
-0.0142047
-0.0142827
-0.0143599
-0.0144363
-0.0145121
-0.0145881
-0.0146644
-0.0147404
-0.014816
-0.0148906
-0.0149647
-0.0150381
-0.0151112
-0.015184
-0.0152569
-0.015329
-0.0154002
-0.0154702
-0.0155403
-0.0156106
-0.0156806
-0.0157496
-0.0158177
-0.0158854
-0.0159532
-0.016021
-0.0160884
-0.016155
-0.0162211
-0.0162873
-0.0163533
-0.0164193
-0.0164851
-0.01655
-0.0166147
-0.01668
-0.0167455
-0.01681
-0.0168742
-0.0169391
-0.0170043
-0.0170689
-0.0171334
-0.0171985
-0.0172637
-0.0173289
-0.0173941
-0.0174598
-0.0175255
-0.0175916
-0.0176576
-0.0177243
-0.0177909
-0.017858
-0.0179251
-0.0179928
-0.0180605
-0.0181286
-0.0181969
-0.0182655
-0.0183345
-0.0184036
-0.0184732
-0.0185428
-0.0186131
-0.0186833
-0.0187543
-0.0188252
-0.0188968
-0.0189686
-0.0190408
-0.0191137
-0.0191866
-0.0192606
-0.0193345
-0.0194092
-0.0194846
-0.0195598
-0.0196367
-0.0197127
-0.0197904
-0.0198682
-0.0199461
-0.0200259
-0.0201043
-0.0201855
-0.0202652
-0.0203471
-0.0204283
-0.0205112
-0.0205937
-0.0206767
-0.0207622
-0.0208431
-0.0209297
-0.0210124
-0.0210895
-0.0211749
-0.0212362
-0.0212938
0.00395655
0.00142361
-0.00448367
-0.0093405
-0.010891
-0.0100376
-0.00863873
-0.00761194
-0.00704712
-0.00678452
-0.00668988
-0.00669264
-0.00675633
-0.00685727
-0.00697834
-0.00710662
-0.00723192
-0.0073482
-0.00745436
-0.00755199
-0.00764303
-0.0077295
-0.00781384
-0.00789827
-0.00798421
-0.00807218
-0.00816227
-0.00825494
-0.00835127
-0.00845184
-0.00855592
-0.00866209
-0.00876917
-0.00887679
-0.00898508
-0.00909405
-0.00920284
-0.00930982
-0.00941352
-0.00951353
-0.00961044
-0.00970478
-0.00979649
-0.00988545
-0.00997214
-0.0100575
-0.0101426
-0.0102278
-0.0103134
-0.0103989
-0.0104839
-0.0105676
-0.0106494
-0.0107289
-0.0108063
-0.010882
-0.0109566
-0.0110307
-0.011105
-0.0111797
-0.0112547
-0.0113298
-0.0114046
-0.0114786
-0.0115519
-0.0116245
-0.0116968
-0.0117693
-0.0118419
-0.0119147
-0.0119873
-0.0120596
-0.0121315
-0.0122034
-0.0122753
-0.0123473
-0.0124191
-0.0124908
-0.0125624
-0.0126342
-0.0127061
-0.012778
-0.0128501
-0.0129226
-0.0129956
-0.0130687
-0.0131419
-0.0132155
-0.0132898
-0.0133647
-0.0134398
-0.0135147
-0.0135899
-0.013666
-0.0137429
-0.0138204
-0.0138974
-0.0139738
-0.0140499
-0.0141269
-0.0142045
-0.0142826
-0.0143598
-0.0144362
-0.014512
-0.014588
-0.0146642
-0.0147403
-0.0148159
-0.0148905
-0.0149646
-0.015038
-0.0151111
-0.0151839
-0.0152569
-0.0153289
-0.0154001
-0.0154702
-0.0155403
-0.0156105
-0.0156806
-0.0157496
-0.0158177
-0.0158854
-0.0159531
-0.016021
-0.0160883