/*--------------------------------*- C++ -*----------------------------------*\
| =========                 |                                                 |
| \\      /  F ield         | OpenFOAM: The Open Source CFD Toolbox           |
|  \\    /   O peration     | Version:  v2012                                 |
|   \\  /    A nd           | Website:  www.openfoam.com                      |
|    \\/     M anipulation  |                                                 |
\*---------------------------------------------------------------------------*/
FoamFile
{
    version     2.0;
    format      ascii;
    class       surfaceScalarField;
    location    "1.2";
    object      phi;
}
// * * * * * * * * * * * * * * * * * * * * * * * * * * * * * * * * * * * * * //

dimensions      [0 3 -1 0 0 0 0];
oriented        oriented;


internalField   nonuniform List<scalar> 
34900
(
1.18209e-06
5.59908e-07
1.1499e-06
-2.67786e-07
1.15669e-06
-1.2875e-07
1.14968e-06
1.27771e-07
1.15327e-06
-1.2571e-08
1.1449e-06
-4.1236e-08
1.15218e-06
1.6604e-08
1.14638e-06
-7.8526e-10
1.15247e-06
2.27734e-08
1.14544e-06
-4.02336e-09
1.15189e-06
4.35857e-08
1.14364e-06
-7.21367e-09
1.15087e-06
7.73486e-08
1.13965e-06
-3.69127e-08
1.14836e-06
1.05661e-07
1.13256e-06
-5.5085e-08
1.14298e-06
1.13511e-07
1.12294e-06
-4.47288e-08
1.13011e-06
9.47525e-08
-1.70558e-08
1.0858e-06
1.23355e-06
5.50619e-07
1.20341e-06
-2.37646e-07
1.20861e-06
-1.33951e-07
1.20531e-06
1.31072e-07
1.20708e-06
-1.4343e-08
1.20067e-06
-3.48181e-08
1.20558e-06
1.1693e-08
1.20331e-06
1.48179e-09
1.2058e-06
2.02813e-08
1.20344e-06
-1.65951e-09
1.20467e-06
4.2356e-08
1.20306e-06
-5.6075e-09
1.20221e-06
7.81992e-08
1.20107e-06
-3.57707e-08
1.19716e-06
1.09566e-07
1.19721e-06
-5.51316e-08
1.18794e-06
1.22783e-07
1.19229e-06
-4.90811e-08
1.17065e-06
1.16388e-07
-1.64285e-08
1.17003e-06
1.28682e-06
5.46581e-07
1.26165e-06
-2.12479e-07
1.2614e-06
-1.33695e-07
1.26412e-06
1.28352e-07
1.26215e-06
-1.23715e-08
1.26067e-06
-3.33436e-08
1.26042e-06
1.19445e-08
1.26403e-06
-2.12269e-09
1.26103e-06
2.32778e-08
1.26501e-06
-5.63924e-09
1.2601e-06
4.72607e-08
1.26503e-06
-1.05353e-08
1.25841e-06
8.48235e-08
1.263e-06
-4.03594e-08
1.25558e-06
1.16978e-07
1.25867e-06
-5.82135e-08
1.25141e-06
1.30041e-07
1.25202e-06
-4.96883e-08
1.24334e-06
1.25064e-07
-3.49546e-10
1.22726e-06
1.34319e-06
5.47498e-07
1.32616e-06
-1.95449e-07
1.31782e-06
-1.25362e-07
1.32583e-06
1.2035e-07
1.32066e-06
-7.20735e-09
1.3234e-06
-3.60872e-08
1.31893e-06
1.64186e-08
1.3263e-06
-9.491e-09
1.32053e-06
2.90462e-08
1.32711e-06
-1.22157e-08
1.32089e-06
5.34747e-08
1.3266e-06
-1.62447e-08
1.32123e-06
9.01948e-08
1.32451e-06
-4.36374e-08
1.32122e-06
1.20267e-07
1.32094e-06
-5.79363e-08
1.31992e-06
1.31064e-07
1.31523e-06
-4.4994e-08
1.31352e-06
1.2677e-07
1.94193e-08
1.29375e-06
1.40391e-06
5.51945e-07
1.39581e-06
-1.87352e-07
1.38005e-06
-1.09603e-07
1.39058e-06
1.09817e-07
1.38455e-06
-1.17248e-09
1.38887e-06
-4.04086e-08
1.38308e-06
2.22135e-08
1.39064e-06
-1.7058e-08
1.38571e-06
3.39767e-08
1.39128e-06
-1.77851e-08
1.38726e-06
5.74955e-08
1.39093e-06
-1.99098e-08
1.38882e-06
9.23021e-08
1.38981e-06
-4.46314e-08
1.38986e-06
1.20223e-07
1.38759e-06
-5.56668e-08
1.38913e-06
1.29523e-07
1.38243e-06
-3.82938e-08
1.38282e-06
1.26376e-07
3.92559e-08
1.36298e-06
1.46987e-06
5.57751e-07
1.46895e-06
-1.86435e-07
1.44918e-06
-8.9831e-08
1.4592e-06
9.97945e-08
1.45464e-06
3.39339e-09
1.45823e-06
-4.40017e-08
1.45349e-06
2.69548e-08
1.45916e-06
-2.27277e-08
1.45646e-06
3.66773e-08
1.46007e-06
-2.13949e-08
1.45838e-06
5.91835e-08
1.46034e-06
-2.18706e-08
1.46022e-06
9.24205e-08
1.4601e-06
-4.45059e-08
1.46156e-06
1.18763e-07
1.45846e-06
-5.25681e-08
1.46115e-06
1.26835e-07
1.4531e-06
-3.02434e-08
1.45501e-06
1.24459e-07
5.90012e-08
1.43527e-06
1.54126e-06
5.62704e-07
1.54449e-06
-1.89659e-07
1.52483e-06
-7.01729e-08
1.53257e-06
9.20505e-08
1.53031e-06
5.65734e-09
1.5324e-06
-4.60868e-08
1.52936e-06
2.99874e-08
1.53298e-06
-2.63498e-08
1.53191e-06
3.77538e-08
1.53416e-06
-2.36464e-08
1.53369e-06
5.96551e-08
1.53486e-06
-2.30428e-08
1.53555e-06
9.17305e-08
1.5349e-06
-4.38596e-08
1.53709e-06
1.16577e-07
1.53324e-06
-4.87233e-08
1.53693e-06
1.23145e-07
1.52747e-06
-2.07816e-08
1.53067e-06
1.21258e-07
7.82785e-08
1.5114e-06
1.61753e-06
5.65299e-07
1.62207e-06
-1.94198e-07
1.60541e-06
-5.35156e-08
1.61077e-06
8.66996e-08
1.61018e-06
6.24362e-09
1.61114e-06
-4.70486e-08
1.60937e-06
3.17561e-08
1.61166e-06
-2.86347e-08
1.61121e-06
3.82053e-08
1.61278e-06
-2.5217e-08
1.61274e-06
5.96887e-08
1.61357e-06
-2.38697e-08
1.61463e-06
9.06672e-08
1.61352e-06
-4.27484e-08
1.61633e-06
1.13769e-07
1.61158e-06
-4.39764e-08
1.61625e-06
1.18475e-07
1.60543e-06
-9.95573e-09
1.60951e-06
1.17176e-07
9.65279e-08
1.59126e-06
1.69781e-06
5.6506e-07
1.70187e-06
-1.98254e-07
1.6892e-06
-4.08436e-08
1.693e-06
8.28947e-08
1.69304e-06
6.20324e-09
1.69353e-06
-4.75384e-08
1.69245e-06
3.28434e-08
1.69406e-06
-3.02494e-08
1.69368e-06
3.85908e-08
1.69489e-06
-2.64325e-08
1.69503e-06
5.95524e-08
1.6956e-06
-2.44416e-08
1.69698e-06
8.92836e-08
1.69531e-06
-4.10786e-08
1.69879e-06
1.10292e-07
1.69302e-06
-3.8208e-08
1.6986e-06
1.12892e-07
1.68661e-06
2.0342e-09
1.69111e-06
1.12685e-07
1.13192e-07
1.67444e-06
1.78149e-06
5.62296e-07
1.78431e-06
-2.01082e-07
1.77522e-06
-3.17476e-08
1.77839e-06
7.9719e-08
1.77837e-06
6.22687e-09
1.77879e-06
-4.79612e-08
1.77805e-06
3.35848e-08
1.77937e-06
-3.15734e-08
1.77893e-06
3.90365e-08
1.77989e-06
-2.73933e-08
1.78019e-06
5.92518e-08
1.78047e-06
-2.47186e-08
1.78225e-06
8.74981e-08
1.77992e-06
-3.87461e-08
1.78415e-06
1.06067e-07
1.77732e-06
-3.13814e-08
1.78367e-06
1.0654e-07
1.77087e-06
1.48347e-08
1.77524e-06
1.08317e-07
1.27768e-07
1.76066e-06
1.86842e-06
5.57623e-07
1.86992e-06
-2.02584e-07
1.86345e-06
-2.52782e-08
1.86653e-06
7.66404e-08
1.86625e-06
6.51271e-09
1.86673e-06
-4.84402e-08
1.8662e-06
3.41075e-08
1.8674e-06
-3.27676e-08
1.86697e-06
3.9463e-08
1.86769e-06
-2.81126e-08
1.86825e-06
5.86952e-08
1.86815e-06
-2.4623e-08
1.87046e-06
8.51909e-08
1.86738e-06
-3.56692e-08
1.87241e-06
1.01044e-07
1.86459e-06
-2.35635e-08
1.87146e-06
9.96629e-08
1.85832e-06
2.79814e-08
1.86201e-06
1.04619e-07
1.39871e-07
1.84991e-06
1.95886e-06
5.51599e-07
1.9592e-06
-2.0292e-07
1.95447e-06
-2.05457e-08
1.9576e-06
7.3509e-08
1.95714e-06
6.97533e-09
1.95764e-06
-4.89465e-08
1.95731e-06
3.44382e-08
1.95841e-06
-3.38663e-08
1.95814e-06
3.97369e-08
1.95859e-06
-2.85619e-08
1.95952e-06
5.77625e-08
1.95896e-06
-2.40669e-08
1.96191e-06
8.22462e-08
1.95804e-06
-3.18022e-08
1.96385e-06
9.52375e-08
1.95522e-06
-1.49342e-08
1.96227e-06
9.26138e-08
1.9493e-06
4.09519e-08
1.95184e-06
1.02076e-07
1.49312e-07
1.9424e-06
2.05319e-06
5.44596e-07
2.05255e-06
-2.02278e-07
2.04895e-06
-1.69493e-08
2.05208e-06
7.03829e-08
2.05161e-06
7.44662e-09
2.05206e-06
-4.93964e-08
2.05194e-06
3.45565e-08
2.0529e-06
-3.48307e-08
2.05291e-06
3.97272e-08
2.05303e-06
-2.86796e-08
2.05446e-06
5.6332e-08
2.05336e-06
-2.29642e-08
2.05703e-06
7.8577e-08
2.05238e-06
-2.71489e-08
2.05886e-06
8.87529e-08
2.04971e-06
-5.77958e-09
2.0565e-06
8.58227e-08
2.04421e-06
5.3235e-08
2.04527e-06
1.01015e-07
1.56147e-07
2.03844e-06
2.15178e-06
5.36818e-07
2.15029e-06
-2.00791e-07
2.14751e-06
-1.41723e-08
2.15051e-06
6.73878e-08
2.15019e-06
7.76349e-09
2.15049e-06
-4.96899e-08
2.15063e-06
3.4411e-08
2.15138e-06
-3.55795e-08
2.15179e-06
3.93146e-08
2.15149e-06
-2.83809e-08
2.15353e-06
5.42948e-08
2.15181e-06
-2.12463e-08
2.15624e-06
7.4146e-08
2.15088e-06
-2.17847e-08
2.15784e-06
8.17924e-08
2.14853e-06
3.53565e-09
2.15461e-06
7.97402e-08
2.14345e-06
6.4397e-08
2.14289e-06
1.01574e-07
1.60654e-07
2.13838e-06
2.25494e-06
5.28365e-07
2.25268e-06
-1.98526e-07
2.2506e-06
-1.20935e-08
2.25333e-06
6.46552e-08
2.25331e-06
7.78179e-09
2.25334e-06
-4.97219e-08
2.25383e-06
3.39262e-08
2.25426e-06
-3.60097e-08
2.25519e-06
3.83886e-08
2.25438e-06
-2.75731e-08
2.25711e-06
5.15653e-08
2.25474e-06
-1.88806e-08
2.2599e-06
6.89861e-08
2.25399e-06
-1.58738e-08
2.26115e-06
7.46295e-08
2.25205e-06
1.26423e-08
2.25703e-06
7.47544e-08
2.2473e-06
7.41324e-08
2.24517e-06
1.03703e-07
1.63273e-07
2.24255e-06
2.36296e-06
5.19279e-07
2.35994e-06
-1.955e-07
2.35855e-06
-1.07035e-08
2.36089e-06
6.2309e-08
2.36131e-06
7.36844e-09
2.36097e-06
-4.93844e-08
2.36188e-06
3.301e-08
2.36189e-06
-3.60106e-08
2.36343e-06
3.68476e-08
2.36203e-06
-2.61744e-08
2.3655e-06
4.80939e-08
2.36251e-06
-1.58909e-08
2.36828e-06
6.32142e-08
2.36208e-06
-9.67646e-09
2.36911e-06
6.76049e-08
2.36057e-06
2.1184e-08
2.36417e-06
7.11474e-08
2.356e-06
8.23066e-08
2.35253e-06
1.07174e-07
1.64537e-07
2.35126e-06
2.4761e-06
5.09571e-07
2.4723e-06
-1.91694e-07
2.47164e-06
-1.00509e-08
2.47348e-06
6.04681e-08
2.47446e-06
6.395e-09
2.47364e-06
-4.85686e-08
2.47509e-06
3.1561e-08
2.47456e-06
-3.54769e-08
2.4768e-06
3.46067e-08
2.47476e-06
-2.41337e-08
2.47897e-06
4.38852e-08
2.47545e-06
-1.2378e-08
2.48163e-06
5.70344e-08
2.47548e-06
-3.52305e-09
2.48201e-06
6.10787e-08
2.47433e-06
2.88601e-08
2.47642e-06
6.90618e-08
2.46975e-06
8.89767e-08
2.46532e-06
1.11601e-07
1.65004e-07
2.46485e-06
2.59463e-06
4.99238e-07
2.59e-06
-1.87062e-07
2.59016e-06
-1.02151e-08
2.59138e-06
5.92494e-08
2.59304e-06
4.7364e-09
2.59164e-06
-4.71683e-08
2.59372e-06
2.94804e-08
2.59256e-06
-3.43213e-08
2.59556e-06
3.16118e-08
2.59288e-06
-2.14526e-08
2.59774e-06
3.90173e-08
2.5939e-06
-8.53291e-09
2.60021e-06
5.072e-08
2.59445e-06
2.23942e-09
2.60016e-06
5.53677e-08
2.59356e-06
3.54673e-08
2.59414e-06
6.84782e-08
2.58874e-06
9.43707e-08
2.58383e-06
1.16521e-07
1.65183e-07
2.58365e-06
2.71881e-06
4.88261e-07
2.71329e-06
-1.81544e-07
2.71437e-06
-1.12942e-08
2.71485e-06
5.87677e-08
2.71731e-06
2.27336e-09
2.71523e-06
-4.50863e-08
2.71802e-06
2.66849e-08
2.71619e-06
-3.24907e-08
2.71995e-06
2.78577e-08
2.7167e-06
-1.82075e-08
2.72206e-06
3.36606e-08
2.71817e-06
-4.64064e-09
2.7243e-06
4.45903e-08
2.71924e-06
7.29572e-09
2.72392e-06
5.0689e-08
2.71845e-06
4.09377e-08
2.71771e-06
6.92188e-08
2.71326e-06
9.88201e-08
2.70828e-06
1.215e-07
1.65454e-07
2.70801e-06
2.84891e-06
4.76619e-07
2.84243e-06
-1.75067e-07
2.84454e-06
-1.33982e-08
2.84417e-06
5.91336e-08
2.84755e-06
-1.10225e-09
2.8447e-06
-4.22451e-08
2.84827e-06
2.31225e-08
2.84576e-06
-2.99835e-08
2.85021e-06
2.34093e-08
2.84657e-06
-1.4566e-08
2.85216e-06
2.80707e-08
2.84856e-06
-1.04436e-09
2.85419e-06
3.89594e-08
2.85007e-06
1.14184e-08
2.85364e-06
4.71158e-08
2.84924e-06
4.53442e-08
2.84746e-06
7.09982e-08
2.84361e-06
1.02662e-07
2.83887e-06
1.26241e-07
1.66016e-07
2.83831e-06
2.98523e-06
4.6429e-07
2.97771e-06
-1.67547e-07
2.98095e-06
-1.66442e-08
2.97964e-06
6.04488e-08
2.98401e-06
-5.47947e-09
2.98037e-06
-3.86004e-08
2.9847e-06
1.87918e-08
2.98159e-06
-2.687e-08
2.98658e-06
1.84192e-08
2.9828e-06
-1.07942e-08
2.9883e-06
2.25735e-08
2.98536e-06
1.89324e-09
2.99024e-06
3.4086e-08
2.98714e-06
1.45134e-08
2.9897e-06
4.4556e-08
2.98618e-06
4.88712e-08
2.9837e-06
7.34788e-08
2.98018e-06
1.06174e-07
2.97578e-06
1.30642e-07
1.66891e-07
2.97491e-06
3.12805e-06
4.51249e-07
3.1194e-06
-1.589e-07
3.12391e-06
-2.11517e-08
3.12156e-06
6.27976e-08
3.12699e-06
-1.0916e-08
3.12255e-06
-3.41587e-08
3.12758e-06
1.37616e-08
3.12402e-06
-2.33108e-08
3.12931e-06
1.31372e-08
3.12576e-06
-7.24647e-09
3.1308e-06
1.75264e-08
3.12884e-06
3.85621e-09
3.13282e-06
3.01058e-08
3.13069e-06
1.66448e-08
3.13247e-06
4.27791e-08
3.1296e-06
5.17408e-08
3.12676e-06
7.63178e-08
3.12338e-06
1.09555e-07
3.11922e-06
1.34802e-07
1.68003e-07
3.11811e-06
3.27768e-06
4.37479e-07
3.26782e-06
-1.49035e-07
3.2737e-06
-2.70347e-08
3.27026e-06
6.62368e-08
3.27677e-06
-1.7424e-08
3.2716e-06
-2.8995e-08
3.27717e-06
8.1924e-09
3.27344e-06
-1.95736e-08
3.27867e-06
7.90771e-09
3.27575e-06
-4.3319e-09
3.28002e-06
1.32539e-08
3.2792e-06
4.67538e-09
3.28236e-06
2.69537e-08
3.28099e-06
1.80143e-08
3.28227e-06
4.14907e-08
3.27988e-06
5.4134e-08
3.27696e-06
7.92376e-08
3.27361e-06
1.12906e-07
3.26946e-06
1.38952e-07
1.69312e-07
3.26815e-06
3.43445e-06
4.22964e-07
3.42328e-06
-1.37868e-07
3.43064e-06
-3.43913e-08
3.42609e-06
7.0781e-08
3.43362e-06
-2.49512e-08
3.4279e-06
-2.32761e-08
3.43374e-06
2.35298e-09
3.4302e-06
-1.60332e-08
3.43497e-06
3.13755e-09
3.43308e-06
-2.44142e-09
3.43638e-06
9.95289e-09
3.43664e-06
4.41306e-09
3.43926e-06
2.43377e-08
3.43836e-06
1.89114e-08
3.43943e-06
4.04252e-08
3.43734e-06
5.62188e-08
3.43444e-06
8.2142e-08
3.43112e-06
1.16223e-07
3.42685e-06
1.43224e-07
1.70967e-07
3.42519e-06
3.59868e-06
4.077e-07
3.58614e-06
-1.25329e-07
3.59503e-06
-4.32865e-08
3.58943e-06
7.63818e-08
3.59784e-06
-3.33556e-08
3.59184e-06
-1.72828e-08
3.59757e-06
-3.37067e-09
3.59469e-06
-1.31519e-08
3.59858e-06
-7.57563e-10
3.598e-06
-1.85784e-09
3.60034e-06
7.6084e-09
3.6014e-06
3.35833e-09
3.60388e-06
2.18574e-08
3.60317e-06
1.9615e-08
3.60406e-06
3.95331e-08
3.60184e-06
5.84425e-08
3.59876e-06
8.52215e-08
3.59553e-06
1.19452e-07
3.59148e-06
1.47281e-07
1.73198e-07
3.58924e-06
3.77072e-06
3.91689e-07
3.75676e-06
-1.11374e-07
3.7672e-06
-5.3729e-08
3.76068e-06
8.29027e-08
3.76971e-06
-4.23854e-08
3.76384e-06
-1.14116e-08
3.76897e-06
-8.50425e-09
3.76724e-06
-1.14152e-08
3.76993e-06
-3.44634e-09
3.77071e-06
-2.64627e-09
3.77237e-06
5.95224e-09
3.77376e-06
1.96484e-09
3.77643e-06
1.91865e-08
3.7756e-06
2.04461e-08
3.7757e-06
3.94385e-08
3.77253e-06
6.16149e-08
3.76897e-06
8.87812e-08
3.76588e-06
1.22538e-07
3.76269e-06
1.50474e-07
1.75594e-07
3.76029e-06
3.95093e-06
3.74952e-07
3.93555e-06
-9.59983e-08
3.94746e-06
-6.56429e-08
3.94027e-06
9.00972e-08
3.94955e-06
-5.1665e-08
3.94431e-06
-6.17716e-09
3.94832e-06
-1.2507e-08
3.94817e-06
-1.12631e-08
3.9495e-06
-4.78363e-09
3.95143e-06
-4.57582e-09
3.95286e-06
4.52544e-09
3.95408e-06
7.46464e-10
3.95687e-06
1.63894e-08
3.95517e-06
2.21498e-08
3.95297e-06
4.16418e-08
3.94893e-06
6.5654e-08
3.945e-06
9.2708e-08
3.94216e-06
1.25384e-07
3.9399e-06
1.52728e-07
1.76935e-07
3.93856e-06
4.13968e-06
3.57522e-07
4.12294e-06
-7.92565e-08
4.13613e-06
-7.8838e-08
4.12864e-06
9.75866e-08
4.13767e-06
-6.069e-08
4.13367e-06
-2.17483e-09
4.13602e-06
-1.4863e-08
4.13773e-06
-1.29723e-08
4.13781e-06
-4.86289e-09
4.14042e-06
-7.18358e-09
4.14202e-06
2.92008e-09
4.14247e-06
2.98616e-10
4.14457e-06
1.42924e-08
4.14081e-06
2.59047e-08
4.13661e-06
4.585e-08
4.13217e-06
7.00932e-08
4.12837e-06
9.65076e-08
4.12589e-06
1.27857e-07
4.12429e-06
1.54334e-07
1.76647e-07
4.12458e-06
4.33737e-06
3.39455e-07
4.31939e-06
-6.12774e-08
4.33353e-06
-9.29759e-08
4.32626e-06
1.04852e-07
4.33442e-06
-6.88512e-08
4.33226e-06
-1.15819e-11
4.33258e-06
-1.51808e-08
4.33615e-06
-1.65459e-08
4.33534e-06
-4.04653e-09
4.33796e-06
-9.80659e-09
4.3398e-06
1.0771e-09
4.33872e-06
1.38421e-09
4.33848e-06
1.45323e-08
4.33359e-06
3.07908e-08
4.32844e-06
5.09985e-08
4.32397e-06
7.45671e-08
4.32057e-06
9.99041e-08
4.31858e-06
1.29852e-07
4.31772e-06
1.5519e-07
1.75359e-07
4.31901e-06
4.5444e-06
3.20827e-07
4.5254e-06
-4.22759e-08
4.53997e-06
-1.0755e-07
4.53357e-06
1.11253e-07
4.54022e-06
-7.55022e-08
4.54041e-06
-1.95719e-10
4.53856e-06
-1.33309e-08
4.54363e-06
-2.16157e-08
4.54249e-06
-2.91103e-09
4.5442e-06
-1.15157e-08
4.54589e-06
-6.13052e-10
4.5427e-06
4.57248e-09
4.53999e-06
1.72435e-08
4.53509e-06
3.56878e-08
4.52979e-06
5.62991e-08
4.52544e-06
7.89168e-08
4.52245e-06
1.02902e-07
4.52104e-06
1.31259e-07
4.52109e-06
1.55136e-07
1.73814e-07
4.52264e-06
4.7612e-06
3.01741e-07
4.74149e-06
-2.25614e-08
4.75581e-06
-1.21875e-07
4.75099e-06
1.16076e-07
4.75554e-06
-8.00528e-08
4.75836e-06
-3.01736e-09
4.75458e-06
-9.54845e-09
4.76039e-06
-2.74258e-08
4.75949e-06
-2.01259e-09
4.75929e-06
-1.13147e-08
4.76019e-06
-1.51617e-09
4.75524e-06
9.52955e-09
4.75087e-06
2.16113e-08
4.74632e-06
4.02343e-08
4.74142e-06
6.11963e-08
4.73721e-06
8.31332e-08
4.73448e-06
1.05627e-07
4.73383e-06
1.31917e-07
4.73453e-06
1.54433e-07
1.72107e-07
4.73624e-06
4.98822e-06
2.82318e-07
4.96818e-06
-2.52435e-09
4.98143e-06
-1.35126e-07
4.9789e-06
1.18615e-07
4.98096e-06
-8.21209e-08
4.98634e-06
-8.39512e-09
4.98121e-06
-4.4136e-09
4.98674e-06
-3.29561e-08
4.98634e-06
-1.61812e-09
4.9836e-06
-8.57481e-09
4.98337e-06
-1.28878e-09
4.97762e-06
1.52877e-08
4.97213e-06
2.70931e-08
4.96798e-06
4.43915e-08
4.96375e-06
6.54233e-08
4.95972e-06
8.71639e-08
4.95719e-06
1.08156e-07
4.95725e-06
1.31856e-07
4.95832e-06
1.5336e-07
1.70058e-07
4.96037e-06
5.22593e-06
2.627e-07
5.20603e-06
1.73808e-08
5.21731e-06
-1.46405e-07
5.21764e-06
1.18283e-07
5.21717e-06
-8.16525e-08
5.22462e-06
-1.58473e-08
5.21884e-06
1.36906e-09
5.22308e-06
-3.71999e-08
5.22306e-06
-1.59608e-09
5.21784e-06
-3.35613e-09
5.21637e-06
1.82551e-10
5.21077e-06
2.08942e-08
5.20458e-06
3.3283e-08
5.20061e-06
4.83566e-08
5.19711e-06
6.89295e-08
5.19341e-06
9.08639e-08
5.19114e-06
1.10422e-07
5.19156e-06
1.31432e-07
5.19302e-06
1.51904e-07
1.67583e-07
5.19549e-06
5.47485e-06
2.4304e-07
5.45557e-06
3.66566e-08
5.4641e-06
-1.54934e-07
5.46753e-06
1.1486e-07
5.46481e-06
-7.89356e-08
5.47362e-06
-2.46599e-08
5.46769e-06
7.30016e-09
5.46999e-06
-3.95031e-08
5.47005e-06
-1.65554e-09
5.46288e-06
3.82171e-09
5.46013e-06
2.93015e-09
5.45532e-06
2.57049e-08
5.44884e-06
3.97605e-08
5.44477e-06
5.24286e-08
5.44188e-06
7.18203e-08
5.4387e-06
9.40386e-08
5.43681e-06
1.12316e-07
5.43724e-06
1.31002e-07
5.43913e-06
1.50016e-07
1.6466e-07
5.44205e-06
5.73551e-06
2.23491e-07
5.71735e-06
5.48099e-08
5.7227e-06
-1.60277e-07
5.72887e-06
1.08688e-07
5.72442e-06
-7.4484e-08
5.73384e-06
-3.40841e-08
5.72798e-06
1.31583e-08
5.72805e-06
-3.95733e-08
5.72808e-06
-1.67981e-09
5.71958e-06
1.23224e-08
5.71549e-06
7.01374e-09
5.71178e-06
2.94158e-08
5.70546e-06
4.60819e-08
5.70103e-06
5.6857e-08
5.69854e-06
7.43093e-08
5.6961e-06
9.64867e-08
5.69461e-06
1.13802e-07
5.69492e-06
1.30694e-07
5.69716e-06
1.47775e-07
1.6129e-07
5.70053e-06
6.00849e-06
2.04194e-07
5.99193e-06
7.13678e-08
5.99401e-06
-1.6236e-07
6.0021e-06
1.00603e-07
5.99643e-06
-6.88152e-08
6.00583e-06
-4.34843e-08
6.00014e-06
1.88486e-08
5.99781e-06
-3.72424e-08
5.99799e-06
-1.85881e-09
5.98882e-06
2.14961e-08
5.98338e-06
1.24531e-08
5.9806e-06
3.21938e-08
5.97491e-06
5.17675e-08
5.97004e-06
6.1729e-08
5.96767e-06
7.66751e-08
5.9661e-06
9.80639e-08
5.96499e-06
1.14906e-07
5.96525e-06
1.30439e-07
5.9677e-06
1.45328e-07
1.57514e-07
5.97147e-06
6.2944e-06
1.85278e-07
6.27986e-06
8.59149e-08
6.27886e-06
-1.61364e-07
6.28786e-06
9.16043e-08
6.28123e-06
-6.21875e-08
6.29017e-06
-5.24199e-08
6.28482e-06
2.41997e-08
6.27983e-06
-3.22551e-08
6.28039e-06
-2.42107e-09
6.27137e-06
3.05172e-08
6.26453e-06
1.92946e-08
6.26233e-06
3.43944e-08
6.25761e-06
5.64905e-08
6.25243e-06
6.69094e-08
6.24993e-06
7.91693e-08
6.2492e-06
9.87988e-08
6.24851e-06
1.15588e-07
6.24885e-06
1.30106e-07
6.25137e-06
1.42801e-07
1.53416e-07
6.25547e-06
6.59388e-06
1.66864e-07
6.58165e-06
9.8153e-08
6.57793e-06
-1.57648e-07
6.58701e-06
8.25277e-08
6.57932e-06
-5.45029e-08
6.58744e-06
-6.05415e-08
6.58279e-06
2.88556e-08
6.57512e-06
-2.45836e-08
6.57588e-06
-3.18648e-09
6.56783e-06
3.85673e-08
6.55975e-06
2.7377e-08
6.55762e-06
3.65282e-08
6.554e-06
6.01049e-08
6.54881e-06
7.20989e-08
6.54604e-06
8.19371e-08
6.54593e-06
9.89163e-08
6.54578e-06
1.15739e-07
6.54632e-06
1.29561e-07
6.54886e-06
1.40265e-07
1.49114e-07
6.55316e-06
6.90759e-06
1.49061e-07
6.89778e-06
1.07966e-07
6.89183e-06
-1.51699e-07
6.90052e-06
7.38405e-08
6.89132e-06
-4.5308e-08
6.89829e-06
-6.7509e-08
6.89476e-06
3.23811e-08
6.88485e-06
-1.46674e-08
6.88518e-06
-3.51436e-09
6.87875e-06
4.49924e-08
6.86978e-06
3.63495e-08
6.86717e-06
3.91344e-08
6.86463e-06
6.26519e-08
6.8598e-06
7.69229e-08
6.85676e-06
8.49822e-08
6.85693e-06
9.87475e-08
6.85739e-06
1.15276e-07
6.85829e-06
1.28658e-07
6.86084e-06
1.37718e-07
1.44727e-07
6.86522e-06
7.23622e-06
1.31973e-07
7.22878e-06
1.15414e-07
7.22116e-06
-1.4408e-07
7.22929e-06
6.57034e-08
7.21819e-06
-3.41985e-08
7.22326e-06
-7.25805e-08
7.22139e-06
3.42453e-08
7.20985e-06
-3.12211e-09
7.20917e-06
-2.83741e-09
7.20461e-06
4.95493e-08
7.19531e-06
4.56558e-08
7.1918e-06
4.26422e-08
7.19009e-06
6.436e-08
7.18598e-06
8.10301e-08
7.1828e-06
8.81682e-08
7.18293e-06
9.86139e-08
7.18399e-06
1.14217e-07
7.18539e-06
1.27261e-07
7.18801e-06
1.35099e-07
1.40348e-07
7.19238e-06
7.58051e-06
1.15693e-07
7.57528e-06
1.20637e-07
7.56643e-06
-1.35232e-07
7.57422e-06
5.79195e-08
7.56105e-06
-2.10271e-08
7.56333e-06
-7.48614e-08
7.56332e-06
3.42555e-08
7.55091e-06
9.28851e-09
7.54873e-06
-6.64624e-10
7.54602e-06
5.22656e-08
7.53694e-06
5.47312e-08
7.53235e-06
4.72313e-08
7.53111e-06
6.56006e-08
7.52795e-06
8.4189e-08
7.52488e-06
9.12438e-08
7.52475e-06
9.87456e-08
7.52628e-06
1.12684e-07
7.52826e-06
1.25278e-07
7.53106e-06
1.32299e-07
1.36019e-07
7.53539e-06
7.94119e-06
1.00317e-07
7.93793e-06
1.23896e-07
7.92833e-06
-1.25634e-07
7.93592e-06
5.03338e-08
7.92112e-06
-6.22753e-09
7.91968e-06
-7.34234e-08
7.92122e-06
3.27153e-08
7.90878e-06
2.17241e-08
7.90487e-06
3.25194e-09
7.90363e-06
5.35077e-08
7.89531e-06
6.30516e-08
7.88968e-06
5.28519e-08
7.8885e-06
6.67829e-08
7.88635e-06
8.63391e-08
7.88368e-06
9.39193e-08
7.8832e-06
9.92208e-08
7.88503e-06
1.10855e-07
7.88761e-06
1.22696e-07
7.89071e-06
1.29201e-07
1.31716e-07
7.89501e-06
8.31905e-06
8.59479e-08
8.31759e-06
1.25356e-07
8.30734e-06
-1.1538e-07
8.31503e-06
4.26382e-08
8.2993e-06
9.50773e-09
8.29366e-06
-6.77873e-08
8.29593e-06
3.04453e-08
8.2842e-06
3.34583e-08
8.27851e-06
8.93898e-09
8.2782e-06
5.38192e-08
8.27104e-06
7.02086e-08
8.26462e-06
5.92707e-08
8.26315e-06
6.82525e-08
8.26192e-06
8.7568e-08
8.25985e-06
9.59892e-08
8.25914e-06
9.99339e-08
8.26108e-06
1.08916e-07
8.26419e-06
1.19584e-07
8.26768e-06
1.25712e-07
1.27371e-07
8.27203e-06
8.71491e-06
7.27026e-08
8.71522e-06
1.25047e-07
8.70401e-06
-1.04171e-07
8.71222e-06
3.44203e-08
8.69627e-06
2.54653e-08
8.68636e-06
-5.78794e-08
8.68851e-06
2.82935e-08
8.67793e-06
4.40361e-08
8.67059e-06
1.62853e-08
8.67056e-06
5.3849e-08
8.66483e-06
7.59343e-08
8.65798e-06
6.61216e-08
8.65598e-06
7.02526e-08
8.65549e-06
8.80541e-08
8.65411e-06
9.73779e-08
8.65339e-06
1.00646e-07
8.65531e-06
1.06999e-07
8.65882e-06
1.16073e-07
8.66275e-06
1.21788e-07
1.22893e-07
8.66722e-06
9.12962e-06
6.07009e-08
9.13161e-06
1.23059e-07
9.11938e-06
-9.19403e-08
9.12775e-06
2.60517e-08
9.11273e-06
4.04794e-08
9.09892e-06
-4.40669e-08
9.10001e-06
2.72062e-08
9.09073e-06
5.33158e-08
9.08207e-06
2.4945e-08
9.08167e-06
5.42526e-08
9.07741e-06
8.01871e-08
9.07058e-06
7.29587e-08
9.06794e-06
7.28876e-08
9.06792e-06
8.80781e-08
9.06724e-06
9.805e-08
9.06677e-06
1.01119e-07
9.06862e-06
1.0515e-07
9.07238e-06
1.12312e-07
9.07673e-06
1.1744e-07
1.18199e-07
9.08142e-06
9.56411e-06
5.00554e-08
9.56753e-06
1.19632e-07
9.5543e-06
-7.87054e-08
9.56238e-06
1.79648e-08
9.54924e-06
5.36255e-08
9.53216e-06
-2.69917e-08
9.53141e-06
2.79557e-08
9.52346e-06
6.1272e-08
9.51381e-06
3.45893e-08
9.51259e-06
5.54769e-08
9.50961e-06
8.31692e-08
9.5032e-06
7.93621e-08
9.5e-06
7.60905e-08
9.5001e-06
8.79813e-08
9.50015e-06
9.79957e-08
9.5001e-06
1.01166e-07
9.50192e-06
1.03334e-07
9.5058e-06
1.08431e-07
9.51051e-06
1.12728e-07
1.13233e-07
9.51548e-06
1.00193e-05
4.08686e-08
1.00241e-05
1.14877e-07
1.00098e-05
-6.44135e-08
1.00169e-05
1.08377e-08
1.00062e-05
6.42953e-08
9.98685e-06
-7.60447e-09
9.98377e-06
3.10411e-08
9.97696e-06
6.80784e-08
9.9667e-06
4.48506e-08
9.9644e-06
5.77744e-08
9.96235e-06
8.52209e-08
9.95669e-06
8.50267e-08
9.95311e-06
7.96709e-08
9.95304e-06
8.8045e-08
9.95376e-06
9.72791e-08
9.95426e-06
1.00668e-07
9.95613e-06
1.01461e-07
9.96005e-06
1.04517e-07
9.96503e-06
1.07739e-07
1.07976e-07
9.97029e-06
1.04963e-05
3.32149e-08
1.05024e-05
1.08787e-07
1.04868e-05
-4.87943e-08
1.04923e-05
5.2563e-09
1.04844e-05
7.22778e-08
1.04639e-05
1.28665e-08
1.04582e-05
3.6767e-08
1.04521e-05
7.41398e-08
1.04417e-05
5.52672e-08
1.04382e-05
6.13029e-08
1.04367e-05
8.67149e-08
1.04319e-05
8.97938e-08
1.04282e-05
8.33958e-08
1.04278e-05
8.83876e-08
1.0429e-05
9.60656e-08
1.04301e-05
9.95638e-08
1.04322e-05
9.94131e-08
1.04361e-05
1.00604e-07
1.04413e-05
1.02565e-07
1.02441e-07
1.04468e-05
1.09961e-05
2.71055e-08
1.10036e-05
1.01347e-07
1.09865e-05
-3.16889e-08
1.09895e-05
2.21107e-09
1.09844e-05
7.73402e-08
1.09641e-05
3.3208e-08
1.09557e-05
4.51999e-08
1.09499e-05
7.99229e-08
1.09397e-05
6.54549e-08
1.0935e-05
6.60512e-08
1.09336e-05
8.80339e-08
1.09298e-05
9.36333e-08
1.09261e-05
8.70458e-08
1.09256e-05
8.89623e-08
1.0927e-05
9.45888e-08
1.09287e-05
9.78614e-08
1.09311e-05
9.70778e-08
1.0935e-05
9.66763e-08
1.09403e-05
9.72819e-08
9.66683e-08
1.09461e-05
1.152e-05
2.24908e-08
1.15277e-05
9.35941e-08
1.15107e-05
-1.46823e-08
1.15099e-05
3.01613e-09
1.15071e-05
8.01159e-08
1.14882e-05
5.21644e-08
1.14774e-05
5.59718e-08
1.14715e-05
8.58742e-08
1.14617e-05
7.52337e-08
1.14559e-05
7.1821e-08
1.14544e-05
8.95533e-08
1.14514e-05
9.66293e-08
1.1448e-05
9.04284e-08
1.14473e-05
8.96375e-08
1.14489e-05
9.30632e-08
1.14511e-05
9.5616e-08
1.14538e-05
9.43762e-08
1.14578e-05
9.26833e-08
1.14632e-05
9.19382e-08
9.07021e-08
1.14691e-05
1.2069e-05
1.92696e-08
1.20765e-05
8.61275e-08
1.206e-05
1.84658e-09
1.20553e-05
7.67398e-09
1.20538e-05
8.1617e-08
1.20369e-05
6.90901e-08
1.20246e-05
6.82484e-08
1.2018e-05
9.24701e-08
1.20087e-05
8.45723e-08
1.20021e-05
7.83667e-08
1.20002e-05
9.15373e-08
1.19978e-05
9.89784e-08
1.19948e-05
9.33916e-08
1.19942e-05
9.02805e-08
1.19957e-05
9.15975e-08
1.19984e-05
9.29218e-08
1.20015e-05
9.12786e-08
1.20056e-05
8.85619e-08
1.2011e-05
8.65482e-08
8.45838e-08
1.20171e-05
1.26446e-05
1.73062e-08
1.26512e-05
7.95201e-08
1.26355e-05
1.75133e-08
1.26273e-05
1.58912e-08
1.26257e-05
8.32038e-08
1.26112e-05
8.35878e-08
1.25983e-05
8.10984e-08
1.25908e-05
9.99812e-08
1.25818e-05
9.35749e-08
1.25747e-05
8.54645e-08
1.25721e-05
9.41262e-08
1.25702e-05
1.00928e-07
1.25677e-05
9.58511e-08
1.25672e-05
9.08347e-08
1.25686e-05
9.01339e-08
1.25717e-05
8.99135e-08
1.25751e-05
8.77886e-08
1.25794e-05
8.42629e-08
1.25849e-05
8.10958e-08
7.83368e-08
1.25911e-05
1.32478e-05
1.64367e-08
1.32533e-05
7.40689e-08
1.32384e-05
3.24163e-08
1.32272e-05
2.70473e-08
1.32246e-05
8.58192e-08
1.32124e-05
9.5813e-08
1.31995e-05
9.39237e-08
1.31912e-05
1.08262e-07
1.31823e-05
1.02497e-07
1.31749e-05
9.29136e-08
1.31716e-05
9.7393e-08
1.31698e-05
1.02718e-07
1.31679e-05
9.78176e-08
1.31674e-05
9.13014e-08
1.3169e-05
8.85292e-08
1.31722e-05
8.67163e-08
1.31761e-05
8.39018e-08
1.31806e-05
7.9774e-08
1.31861e-05
7.55489e-08
7.19468e-08
1.31925e-05
1.38801e-05
1.64938e-08
1.38838e-05
7.03391e-08
1.387e-05
4.62806e-08
1.38566e-05
4.04642e-08
1.38523e-05
9.01026e-08
1.38418e-05
1.06298e-07
1.38294e-05
1.06355e-07
1.38205e-05
1.17086e-07
1.38115e-05
1.11532e-07
1.38038e-05
1.00645e-07
1.37998e-05
1.01316e-07
1.3798e-05
1.04575e-07
1.37964e-05
9.93908e-08
1.3796e-05
9.16646e-08
1.37978e-05
8.67453e-08
1.38012e-05
8.33673e-08
1.38055e-05
7.95873e-08
1.38102e-05
7.50889e-08
1.38158e-05
6.99052e-08
6.53225e-08
1.38224e-05
1.45428e-05
1.73316e-08
1.45445e-05
6.86575e-08
1.45318e-05
5.89948e-08
1.45168e-05
5.54456e-08
1.45106e-05
9.63599e-08
1.45011e-05
1.15794e-07
1.44891e-05
1.1829e-07
1.44799e-05
1.26291e-07
1.44708e-05
1.20699e-07
1.44627e-05
1.08735e-07
1.44581e-05
1.05836e-07
1.4456e-05
1.06682e-07
1.44547e-05
1.00743e-07
1.44545e-05
9.1885e-08
1.44563e-05
8.48814e-08
1.44599e-05
7.98382e-08
1.44646e-05
7.4887e-08
1.44696e-05
7.00178e-08
1.44753e-05
6.42769e-08
5.8278e-08
1.44823e-05
1.52374e-05
1.88319e-08
1.52373e-05
6.87692e-08
1.52249e-05
7.13576e-08
1.52093e-05
7.1083e-08
1.5201e-05
1.04582e-07
1.51917e-05
1.25104e-07
1.51803e-05
1.29729e-07
1.51707e-05
1.35848e-07
1.51614e-05
1.3e-07
1.5153e-05
1.17214e-07
1.51478e-05
1.1098e-07
1.51454e-05
1.09146e-07
1.5144e-05
1.02088e-07
1.51439e-05
9.19599e-08
1.51458e-05
8.30535e-08
1.51495e-05
7.61125e-08
1.51544e-05
6.99948e-08
1.51601e-05
6.42763e-08
1.5166e-05
5.83943e-08
5.11418e-08
1.51731e-05
1.59653e-05
2.09025e-08
1.59631e-05
7.09054e-08
1.59513e-05
8.31449e-08
1.59353e-05
8.71445e-08
1.59252e-05
1.14704e-07
1.59156e-05
1.34664e-07
1.59044e-05
1.40911e-07
1.58945e-05
1.4578e-07
1.58849e-05
1.39544e-07
1.58761e-05
1.26048e-07
1.58703e-05
1.16816e-07
1.58673e-05
1.12087e-07
1.58658e-05
1.03623e-07
1.58657e-05
9.19988e-08
1.58675e-05
8.13304e-08
1.58713e-05
7.22881e-08
1.58764e-05
6.48806e-08
1.58826e-05
5.80764e-08
1.58897e-05
5.13049e-08
4.47996e-08
1.5896e-05
1.67281e-05
2.34416e-08
1.6724e-05
7.49372e-08
1.67126e-05
9.45694e-08
1.66964e-05
1.03394e-07
1.66846e-05
1.26507e-07
1.66743e-05
1.44935e-07
1.66631e-05
1.52099e-07
1.66527e-05
1.56175e-07
1.66428e-05
1.49494e-07
1.66335e-05
1.35275e-07
1.66269e-05
1.23397e-07
1.66234e-05
1.15663e-07
1.66215e-05
1.05493e-07
1.66212e-05
9.22541e-08
1.66228e-05
7.975e-08
1.66266e-05
6.84758e-08
1.66321e-05
5.94302e-08
1.66388e-05
5.13842e-08
1.66462e-05
4.38678e-08
3.74524e-08
1.66536e-05
1.75275e-05
2.63381e-08
1.75223e-05
8.00818e-08
1.75104e-05
1.06496e-07
1.74941e-05
1.19699e-07
1.74808e-05
1.39766e-07
1.74696e-05
1.56196e-07
1.7458e-05
1.63625e-07
1.74471e-05
1.67151e-07
1.74365e-05
1.60057e-07
1.74267e-05
1.45048e-07
1.74193e-05
1.30808e-07
1.74149e-05
1.20059e-07
1.74126e-05
1.07839e-07
1.74118e-05
9.30233e-08
1.74132e-05
7.83842e-08
1.74169e-05
6.47123e-08
1.74227e-05
5.3668e-08
1.74298e-05
4.4268e-08
1.74377e-05
3.59529e-08
2.88787e-08
1.74463e-05
1.83652e-05
2.95195e-08
1.83587e-05
8.65174e-08
1.83466e-05
1.18581e-07
1.83303e-05
1.3609e-07
1.83156e-05
1.54421e-07
1.83032e-05
1.68574e-07
1.8291e-05
1.75797e-07
1.82793e-05
1.78871e-07
1.82679e-05
1.7149e-07
1.82573e-05
1.55601e-07
1.82489e-05
1.39241e-07
1.82435e-05
1.25465e-07
1.82404e-05
1.10913e-07
1.82389e-05
9.45113e-08
1.82399e-05
7.74061e-08
1.82436e-05
6.10789e-08
1.82495e-05
4.77161e-08
1.82571e-05
3.66433e-08
1.82658e-05
2.72346e-08
1.93475e-08
1.82754e-05
1.9243e-05
3.29273e-08
1.92355e-05
9.40104e-08
1.92232e-05
1.30883e-07
1.92067e-05
1.52594e-07
1.91909e-05
1.70215e-07
1.91771e-05
1.82404e-07
1.9164e-05
1.88895e-07
1.91513e-05
1.91491e-07
1.91388e-05
1.84037e-07
1.91271e-05
1.67282e-07
1.91174e-05
1.48975e-07